256
Lattice="14.4 0.0 0.0 0.0 14.4 0.0 0.0 0.0 14.4" Properties=species:S:1:pos:R:3:masses:R:1:id:I:1:type:I:1 comment="(written by ASE)" energy=-1030.71342672063 pbc="T T T"
Cr       0.00000000       0.00000000       0.00000000      51.99610000        1        3
Cr       0.00000000       1.80000000       1.80000000      51.99610000        2        3
Ni       1.80000000       0.00000000       1.80000000      58.69340000        3        2
Cr       1.80000000       1.80000000       0.00000000      51.99610000        4        3
Mn       0.00000000       0.00000000       3.60000000      54.93804400        5        5
Ni       0.00000000       1.80000000       5.40000000      58.69340000        6        2
Mn       1.80000000       0.00000000       5.40000000      54.93804400        7        5
Ni       1.80000000       1.80000000       3.60000000      58.69340000        8        2
Ni       0.00000000       0.00000000       7.20000000      58.69340000        9        2
Ni       0.00000000       1.80000000       9.00000000      58.69340000       10        2
Cr       1.80000000       0.00000000       9.00000000      51.99610000       11        3
Cr       1.80000000       1.80000000       7.20000000      51.99610000       12        3
Cr       0.00000000       0.00000000      10.80000000      51.99610000       13        3
Ni       0.00000000       1.80000000      12.60000000      58.69340000       14        2
Mn       1.80000000       0.00000000      12.60000000      54.93804400       15        5
Fe       1.80000000       1.80000000      10.80000000      55.84500000       16        4
Cr       0.00000000       3.60000000       0.00000000      51.99610000       17        3
Co       0.00000000       5.40000000       1.80000000      58.93319400       18        1
Cr       1.80000000       3.60000000       1.80000000      51.99610000       19        3
Mn       1.80000000       5.40000000       0.00000000      54.93804400       20        5
Fe       0.00000000       3.60000000       3.60000000      55.84500000       21        4
Co       0.00000000       5.40000000       5.40000000      58.93319400       22        1
Mn       1.80000000       3.60000000       5.40000000      54.93804400       23        5
Fe       1.80000000       5.40000000       3.60000000      55.84500000       24        4
Fe       0.00000000       3.60000000       7.20000000      55.84500000       25        4
Co       0.00000000       5.40000000       9.00000000      58.93319400       26        1
Co       1.80000000       3.60000000       9.00000000      58.93319400       27        1
Fe       1.80000000       5.40000000       7.20000000      55.84500000       28        4
Fe       0.00000000       3.60000000      10.80000000      55.84500000       29        4
Co       0.00000000       5.40000000      12.60000000      58.93319400       30        1
Co       1.80000000       3.60000000      12.60000000      58.93319400       31        1
Co       1.80000000       5.40000000      10.80000000      58.93319400       32        1
Co       0.00000000       7.20000000       0.00000000      58.93319400       33        1
Fe       0.00000000       9.00000000       1.80000000      55.84500000       34        4
Co       1.80000000       7.20000000       1.80000000      58.93319400       35        1
Mn       1.80000000       9.00000000       0.00000000      54.93804400       36        5
Co       0.00000000       7.20000000       3.60000000      58.93319400       37        1
Fe       0.00000000       9.00000000       5.40000000      55.84500000       38        4
Co       1.80000000       7.20000000       5.40000000      58.93319400       39        1
Co       1.80000000       9.00000000       3.60000000      58.93319400       40        1
Co       0.00000000       7.20000000       7.20000000      58.93319400       41        1
Fe       0.00000000       9.00000000       9.00000000      55.84500000       42        4
Co       1.80000000       7.20000000       9.00000000      58.93319400       43        1
Cr       1.80000000       9.00000000       7.20000000      51.99610000       44        3
Co       0.00000000       7.20000000      10.80000000      58.93319400       45        1
Ni       0.00000000       9.00000000      12.60000000      58.69340000       46        2
Fe       1.80000000       7.20000000      12.60000000      55.84500000       47        4
Mn       1.80000000       9.00000000      10.80000000      54.93804400       48        5
Mn       0.00000000      10.80000000       0.00000000      54.93804400       49        5
Cr       0.00000000      12.60000000       1.80000000      51.99610000       50        3
Co       1.80000000      10.80000000       1.80000000      58.93319400       51        1
Ni       1.80000000      12.60000000       0.00000000      58.69340000       52        2
Mn       0.00000000      10.80000000       3.60000000      54.93804400       53        5
Ni       0.00000000      12.60000000       5.40000000      58.69340000       54        2
Mn       1.80000000      10.80000000       5.40000000      54.93804400       55        5
Fe       1.80000000      12.60000000       3.60000000      55.84500000       56        4
Fe       0.00000000      10.80000000       7.20000000      55.84500000       57        4
Cr       0.00000000      12.60000000       9.00000000      51.99610000       58        3
Ni       1.80000000      10.80000000       9.00000000      58.69340000       59        2
Mn       1.80000000      12.60000000       7.20000000      54.93804400       60        5
Mn       0.00000000      10.80000000      10.80000000      54.93804400       61        5
Cr       0.00000000      12.60000000      12.60000000      51.99610000       62        3
Fe       1.80000000      10.80000000      12.60000000      55.84500000       63        4
Mn       1.80000000      12.60000000      10.80000000      54.93804400       64        5
Ni       3.60000000       0.00000000       0.00000000      58.69340000       65        2
Cr       3.60000000       1.80000000       1.80000000      51.99610000       66        3
Cr       5.40000000       0.00000000       1.80000000      51.99610000       67        3
Mn       5.40000000       1.80000000       0.00000000      54.93804400       68        5
Mn       3.60000000       0.00000000       3.60000000      54.93804400       69        5
Ni       3.60000000       1.80000000       5.40000000      58.69340000       70        2
Ni       5.40000000       0.00000000       5.40000000      58.69340000       71        2
Fe       5.40000000       1.80000000       3.60000000      55.84500000       72        4
Cr       3.60000000       0.00000000       7.20000000      51.99610000       73        3
Mn       3.60000000       1.80000000       9.00000000      54.93804400       74        5
Fe       5.40000000       0.00000000       9.00000000      55.84500000       75        4
Mn       5.40000000       1.80000000       7.20000000      54.93804400       76        5
Co       3.60000000       0.00000000      10.80000000      58.93319400       77        1
Mn       3.60000000       1.80000000      12.60000000      54.93804400       78        5
Fe       5.40000000       0.00000000      12.60000000      55.84500000       79        4
Co       5.40000000       1.80000000      10.80000000      58.93319400       80        1
Cr       3.60000000       3.60000000       0.00000000      51.99610000       81        3
Cr       3.60000000       5.40000000       1.80000000      51.99610000       82        3
Ni       5.40000000       3.60000000       1.80000000      58.69340000       83        2
Ni       5.40000000       5.40000000       0.00000000      58.69340000       84        2
Mn       3.60000000       3.60000000       3.60000000      54.93804400       85        5
Ni       3.60000000       5.40000000       5.40000000      58.69340000       86        2
Ni       5.40000000       3.60000000       5.40000000      58.69340000       87        2
Cr       5.40000000       5.40000000       3.60000000      51.99610000       88        3
Fe       3.60000000       3.60000000       7.20000000      55.84500000       89        4
Co       3.60000000       5.40000000       9.00000000      58.93319400       90        1
Co       5.40000000       3.60000000       9.00000000      58.93319400       91        1
Co       5.40000000       5.40000000       7.20000000      58.93319400       92        1
Co       3.60000000       3.60000000      10.80000000      58.93319400       93        1
Mn       3.60000000       5.40000000      12.60000000      54.93804400       94        5
Fe       5.40000000       3.60000000      12.60000000      55.84500000       95        4
Fe       5.40000000       5.40000000      10.80000000      55.84500000       96        4
Fe       3.60000000       7.20000000       0.00000000      55.84500000       97        4
Fe       3.60000000       9.00000000       1.80000000      55.84500000       98        4
Mn       5.40000000       7.20000000       1.80000000      54.93804400       99        5
Mn       5.40000000       9.00000000       0.00000000      54.93804400      100        5
Mn       3.60000000       7.20000000       3.60000000      54.93804400      101        5
Fe       3.60000000       9.00000000       5.40000000      55.84500000      102        4
Cr       5.40000000       7.20000000       5.40000000      51.99610000      103        3
Ni       5.40000000       9.00000000       3.60000000      58.69340000      104        2
Mn       3.60000000       7.20000000       7.20000000      54.93804400      105        5
Fe       3.60000000       9.00000000       9.00000000      55.84500000      106        4
Co       5.40000000       7.20000000       9.00000000      58.93319400      107        1
Mn       5.40000000       9.00000000       7.20000000      54.93804400      108        5
Fe       3.60000000       7.20000000      10.80000000      55.84500000      109        4
Ni       3.60000000       9.00000000      12.60000000      58.69340000      110        2
Mn       5.40000000       7.20000000      12.60000000      54.93804400      111        5
Mn       5.40000000       9.00000000      10.80000000      54.93804400      112        5
Co       3.60000000      10.80000000       0.00000000      58.93319400      113        1
Fe       3.60000000      12.60000000       1.80000000      55.84500000      114        4
Fe       5.40000000      10.80000000       1.80000000      55.84500000      115        4
Co       5.40000000      12.60000000       0.00000000      58.93319400      116        1
Mn       3.60000000      10.80000000       3.60000000      54.93804400      117        5
Ni       3.60000000      12.60000000       5.40000000      58.69340000      118        2
Fe       5.40000000      10.80000000       5.40000000      55.84500000      119        4
Ni       5.40000000      12.60000000       3.60000000      58.69340000      120        2
Ni       3.60000000      10.80000000       7.20000000      58.69340000      121        2
Cr       3.60000000      12.60000000       9.00000000      51.99610000      122        3
Mn       5.40000000      10.80000000       9.00000000      54.93804400      123        5
Mn       5.40000000      12.60000000       7.20000000      54.93804400      124        5
Ni       3.60000000      10.80000000      10.80000000      58.69340000      125        2
Fe       3.60000000      12.60000000      12.60000000      55.84500000      126        4
Fe       5.40000000      10.80000000      12.60000000      55.84500000      127        4
Co       5.40000000      12.60000000      10.80000000      58.93319400      128        1
Mn       7.20000000       0.00000000       0.00000000      54.93804400      129        5
Ni       7.20000000       1.80000000       1.80000000      58.69340000      130        2
Ni       9.00000000       0.00000000       1.80000000      58.69340000      131        2
Cr       9.00000000       1.80000000       0.00000000      51.99610000      132        3
Mn       7.20000000       0.00000000       3.60000000      54.93804400      133        5
Fe       7.20000000       1.80000000       5.40000000      55.84500000      134        4
Cr       9.00000000       0.00000000       5.40000000      51.99610000      135        3
Cr       9.00000000       1.80000000       3.60000000      51.99610000      136        3
Cr       7.20000000       0.00000000       7.20000000      51.99610000      137        3
Co       7.20000000       1.80000000       9.00000000      58.93319400      138        1
Fe       9.00000000       0.00000000       9.00000000      55.84500000      139        4
Co       9.00000000       1.80000000       7.20000000      58.93319400      140        1
Mn       7.20000000       0.00000000      10.80000000      54.93804400      141        5
Ni       7.20000000       1.80000000      12.60000000      58.69340000      142        2
Ni       9.00000000       0.00000000      12.60000000      58.69340000      143        2
Fe       9.00000000       1.80000000      10.80000000      55.84500000      144        4
Mn       7.20000000       3.60000000       0.00000000      54.93804400      145        5
Cr       7.20000000       5.40000000       1.80000000      51.99610000      146        3
Cr       9.00000000       3.60000000       1.80000000      51.99610000      147        3
Cr       9.00000000       5.40000000       0.00000000      51.99610000      148        3
Mn       7.20000000       3.60000000       3.60000000      54.93804400      149        5
Cr       7.20000000       5.40000000       5.40000000      51.99610000      150        3
Co       9.00000000       3.60000000       5.40000000      58.93319400      151        1
Ni       9.00000000       5.40000000       3.60000000      58.69340000      152        2
Fe       7.20000000       3.60000000       7.20000000      55.84500000      153        4
Mn       7.20000000       5.40000000       9.00000000      54.93804400      154        5
Co       9.00000000       3.60000000       9.00000000      58.93319400      155        1
Fe       9.00000000       5.40000000       7.20000000      55.84500000      156        4
Mn       7.20000000       3.60000000      10.80000000      54.93804400      157        5
Cr       7.20000000       5.40000000      12.60000000      51.99610000      158        3
Cr       9.00000000       3.60000000      12.60000000      51.99610000      159        3
Fe       9.00000000       5.40000000      10.80000000      55.84500000      160        4
Cr       7.20000000       7.20000000       0.00000000      51.99610000      161        3
Ni       7.20000000       9.00000000       1.80000000      58.69340000      162        2
Cr       9.00000000       7.20000000       1.80000000      51.99610000      163        3
Mn       9.00000000       9.00000000       0.00000000      54.93804400      164        5
Mn       7.20000000       7.20000000       3.60000000      54.93804400      165        5
Ni       7.20000000       9.00000000       5.40000000      58.69340000      166        2
Mn       9.00000000       7.20000000       5.40000000      54.93804400      167        5
Co       9.00000000       9.00000000       3.60000000      58.93319400      168        1
Cr       7.20000000       7.20000000       7.20000000      51.99610000      169        3
Fe       7.20000000       9.00000000       9.00000000      55.84500000      170        4
Ni       9.00000000       7.20000000       9.00000000      58.69340000      171        2
Mn       9.00000000       9.00000000       7.20000000      54.93804400      172        5
Ni       7.20000000       7.20000000      10.80000000      58.69340000      173        2
Ni       7.20000000       9.00000000      12.60000000      58.69340000      174        2
Mn       9.00000000       7.20000000      12.60000000      54.93804400      175        5
Mn       9.00000000       9.00000000      10.80000000      54.93804400      176        5
Co       7.20000000      10.80000000       0.00000000      58.93319400      177        1
Co       7.20000000      12.60000000       1.80000000      58.93319400      178        1
Co       9.00000000      10.80000000       1.80000000      58.93319400      179        1
Fe       9.00000000      12.60000000       0.00000000      55.84500000      180        4
Mn       7.20000000      10.80000000       3.60000000      54.93804400      181        5
Ni       7.20000000      12.60000000       5.40000000      58.69340000      182        2
Fe       9.00000000      10.80000000       5.40000000      55.84500000      183        4
Fe       9.00000000      12.60000000       3.60000000      55.84500000      184        4
Co       7.20000000      10.80000000       7.20000000      58.93319400      185        1
Co       7.20000000      12.60000000       9.00000000      58.93319400      186        1
Fe       9.00000000      10.80000000       9.00000000      55.84500000      187        4
Mn       9.00000000      12.60000000       7.20000000      54.93804400      188        5
Co       7.20000000      10.80000000      10.80000000      58.93319400      189        1
Co       7.20000000      12.60000000      12.60000000      58.93319400      190        1
Fe       9.00000000      10.80000000      12.60000000      55.84500000      191        4
Fe       9.00000000      12.60000000      10.80000000      55.84500000      192        4
Cr      10.80000000       0.00000000       0.00000000      51.99610000      193        3
Cr      10.80000000       1.80000000       1.80000000      51.99610000      194        3
Cr      12.60000000       0.00000000       1.80000000      51.99610000      195        3
Cr      12.60000000       1.80000000       0.00000000      51.99610000      196        3
Mn      10.80000000       0.00000000       3.60000000      54.93804400      197        5
Fe      10.80000000       1.80000000       5.40000000      55.84500000      198        4
Fe      12.60000000       0.00000000       5.40000000      55.84500000      199        4
Mn      12.60000000       1.80000000       3.60000000      54.93804400      200        5
Ni      10.80000000       0.00000000       7.20000000      58.69340000      201        2
Fe      10.80000000       1.80000000       9.00000000      55.84500000      202        4
Cr      12.60000000       0.00000000       9.00000000      51.99610000      203        3
Mn      12.60000000       1.80000000       7.20000000      54.93804400      204        5
Ni      10.80000000       0.00000000      10.80000000      58.69340000      205        2
Cr      10.80000000       1.80000000      12.60000000      51.99610000      206        3
Cr      12.60000000       0.00000000      12.60000000      51.99610000      207        3
Mn      12.60000000       1.80000000      10.80000000      54.93804400      208        5
Mn      10.80000000       3.60000000       0.00000000      54.93804400      209        5
Mn      10.80000000       5.40000000       1.80000000      54.93804400      210        5
Ni      12.60000000       3.60000000       1.80000000      58.69340000      211        2
Fe      12.60000000       5.40000000       0.00000000      55.84500000      212        4
Ni      10.80000000       3.60000000       3.60000000      58.69340000      213        2
Mn      10.80000000       5.40000000       5.40000000      54.93804400      214        5
Co      12.60000000       3.60000000       5.40000000      58.93319400      215        1
Fe      12.60000000       5.40000000       3.60000000      55.84500000      216        4
Co      10.80000000       3.60000000       7.20000000      58.93319400      217        1
Co      10.80000000       5.40000000       9.00000000      58.93319400      218        1
Co      12.60000000       3.60000000       9.00000000      58.93319400      219        1
Fe      12.60000000       5.40000000       7.20000000      55.84500000      220        4
Mn      10.80000000       3.60000000      10.80000000      54.93804400      221        5
Ni      10.80000000       5.40000000      12.60000000      58.69340000      222        2
Ni      12.60000000       3.60000000      12.60000000      58.69340000      223        2
Fe      12.60000000       5.40000000      10.80000000      55.84500000      224        4
Cr      10.80000000       7.20000000       0.00000000      51.99610000      225        3
Fe      10.80000000       9.00000000       1.80000000      55.84500000      226        4
Co      12.60000000       7.20000000       1.80000000      58.93319400      227        1
Mn      12.60000000       9.00000000       0.00000000      54.93804400      228        5
Co      10.80000000       7.20000000       3.60000000      58.93319400      229        1
Fe      10.80000000       9.00000000       5.40000000      55.84500000      230        4
Co      12.60000000       7.20000000       5.40000000      58.93319400      231        1
Co      12.60000000       9.00000000       3.60000000      58.93319400      232        1
Ni      10.80000000       7.20000000       7.20000000      58.69340000      233        2
Fe      10.80000000       9.00000000       9.00000000      55.84500000      234        4
Co      12.60000000       7.20000000       9.00000000      58.93319400      235        1
Mn      12.60000000       9.00000000       7.20000000      54.93804400      236        5
Co      10.80000000       7.20000000      10.80000000      58.93319400      237        1
Ni      10.80000000       9.00000000      12.60000000      58.69340000      238        2
Mn      12.60000000       7.20000000      12.60000000      54.93804400      239        5
Fe      12.60000000       9.00000000      10.80000000      55.84500000      240        4
Ni      10.80000000      10.80000000       0.00000000      58.69340000      241        2
Mn      10.80000000      12.60000000       1.80000000      54.93804400      242        5
Cr      12.60000000      10.80000000       1.80000000      51.99610000      243        3
Cr      12.60000000      12.60000000       0.00000000      51.99610000      244        3
Co      10.80000000      10.80000000       3.60000000      58.93319400      245        1
Cr      10.80000000      12.60000000       5.40000000      51.99610000      246        3
Mn      12.60000000      10.80000000       5.40000000      54.93804400      247        5
Cr      12.60000000      12.60000000       3.60000000      51.99610000      248        3
Ni      10.80000000      10.80000000       7.20000000      58.69340000      249        2
Mn      10.80000000      12.60000000       9.00000000      54.93804400      250        5
Ni      12.60000000      10.80000000       9.00000000      58.69340000      251        2
Mn      12.60000000      12.60000000       7.20000000      54.93804400      252        5
Ni      10.80000000      10.80000000      10.80000000      58.69340000      253        2
Mn      10.80000000      12.60000000      12.60000000      54.93804400      254        5
Cr      12.60000000      10.80000000      12.60000000      51.99610000      255        3
Cr      12.60000000      12.60000000      10.80000000      51.99610000      256        3
