256
Lattice="14.4 0.0 0.0 0.0 14.4 0.0 0.0 0.0 14.4" Properties=species:S:1:pos:R:3:masses:R:1:id:I:1:type:I:1 comment="(written by ASE)" energy=-1021.98024731265 pbc="T T T"
Mn       0.00000000       0.00000000       0.00000000      54.93804400        1        5
Co       0.00000000       1.80000000       1.80000000      58.93319400        2        1
Mn       1.80000000       0.00000000       1.80000000      54.93804400        3        5
Mn       1.80000000       1.80000000       0.00000000      54.93804400        4        5
Mn       0.00000000       0.00000000       3.60000000      54.93804400        5        5
Mn       0.00000000       1.80000000       5.40000000      54.93804400        6        5
Mn       1.80000000       0.00000000       5.40000000      54.93804400        7        5
Mn       1.80000000       1.80000000       3.60000000      54.93804400        8        5
Co       0.00000000       0.00000000       7.20000000      58.93319400        9        1
Co       0.00000000       1.80000000       9.00000000      58.93319400       10        1
Mn       1.80000000       0.00000000       9.00000000      54.93804400       11        5
Mn       1.80000000       1.80000000       7.20000000      54.93804400       12        5
Mn       0.00000000       0.00000000      10.80000000      54.93804400       13        5
Co       0.00000000       1.80000000      12.60000000      58.93319400       14        1
Co       1.80000000       0.00000000      12.60000000      58.93319400       15        1
Mn       1.80000000       1.80000000      10.80000000      54.93804400       16        5
Co       0.00000000       3.60000000       0.00000000      58.93319400       17        1
Fe       0.00000000       5.40000000       1.80000000      55.84500000       18        4
Mn       1.80000000       3.60000000       1.80000000      54.93804400       19        5
Fe       1.80000000       5.40000000       0.00000000      55.84500000       20        4
Mn       0.00000000       3.60000000       3.60000000      54.93804400       21        5
Mn       0.00000000       5.40000000       5.40000000      54.93804400       22        5
Fe       1.80000000       3.60000000       5.40000000      55.84500000       23        4
Fe       1.80000000       5.40000000       3.60000000      55.84500000       24        4
Mn       0.00000000       3.60000000       7.20000000      54.93804400       25        5
Fe       0.00000000       5.40000000       9.00000000      55.84500000       26        4
Fe       1.80000000       3.60000000       9.00000000      55.84500000       27        4
Ni       1.80000000       5.40000000       7.20000000      58.69340000       28        2
Co       0.00000000       3.60000000      10.80000000      58.93319400       29        1
Fe       0.00000000       5.40000000      12.60000000      55.84500000       30        4
Mn       1.80000000       3.60000000      12.60000000      54.93804400       31        5
Fe       1.80000000       5.40000000      10.80000000      55.84500000       32        4
Ni       0.00000000       7.20000000       0.00000000      58.69340000       33        2
Fe       0.00000000       9.00000000       1.80000000      55.84500000       34        4
Cr       1.80000000       7.20000000       1.80000000      51.99610000       35        3
Ni       1.80000000       9.00000000       0.00000000      58.69340000       36        2
Mn       0.00000000       7.20000000       3.60000000      54.93804400       37        5
Mn       0.00000000       9.00000000       5.40000000      54.93804400       38        5
Ni       1.80000000       7.20000000       5.40000000      58.69340000       39        2
Fe       1.80000000       9.00000000       3.60000000      55.84500000       40        4
Cr       0.00000000       7.20000000       7.20000000      51.99610000       41        3
Cr       0.00000000       9.00000000       9.00000000      51.99610000       42        3
Ni       1.80000000       7.20000000       9.00000000      58.69340000       43        2
Fe       1.80000000       9.00000000       7.20000000      55.84500000       44        4
Fe       0.00000000       7.20000000      10.80000000      55.84500000       45        4
Cr       0.00000000       9.00000000      12.60000000      51.99610000       46        3
Cr       1.80000000       7.20000000      12.60000000      51.99610000       47        3
Ni       1.80000000       9.00000000      10.80000000      58.69340000       48        2
Ni       0.00000000      10.80000000       0.00000000      58.69340000       49        2
Fe       0.00000000      12.60000000       1.80000000      55.84500000       50        4
Cr       1.80000000      10.80000000       1.80000000      51.99610000       51        3
Mn       1.80000000      12.60000000       0.00000000      54.93804400       52        5
Fe       0.00000000      10.80000000       3.60000000      55.84500000       53        4
Co       0.00000000      12.60000000       5.40000000      58.93319400       54        1
Mn       1.80000000      10.80000000       5.40000000      54.93804400       55        5
Ni       1.80000000      12.60000000       3.60000000      58.69340000       56        2
Mn       0.00000000      10.80000000       7.20000000      54.93804400       57        5
Fe       0.00000000      12.60000000       9.00000000      55.84500000       58        4
Ni       1.80000000      10.80000000       9.00000000      58.69340000       59        2
Co       1.80000000      12.60000000       7.20000000      58.93319400       60        1
Fe       0.00000000      10.80000000      10.80000000      55.84500000       61        4
Co       0.00000000      12.60000000      12.60000000      58.93319400       62        1
Cr       1.80000000      10.80000000      12.60000000      51.99610000       63        3
Co       1.80000000      12.60000000      10.80000000      58.93319400       64        1
Co       3.60000000       0.00000000       0.00000000      58.93319400       65        1
Co       3.60000000       1.80000000       1.80000000      58.93319400       66        1
Mn       5.40000000       0.00000000       1.80000000      54.93804400       67        5
Co       5.40000000       1.80000000       0.00000000      58.93319400       68        1
Co       3.60000000       0.00000000       3.60000000      58.93319400       69        1
Mn       3.60000000       1.80000000       5.40000000      54.93804400       70        5
Mn       5.40000000       0.00000000       5.40000000      54.93804400       71        5
Co       5.40000000       1.80000000       3.60000000      58.93319400       72        1
Co       3.60000000       0.00000000       7.20000000      58.93319400       73        1
Co       3.60000000       1.80000000       9.00000000      58.93319400       74        1
Mn       5.40000000       0.00000000       9.00000000      54.93804400       75        5
Fe       5.40000000       1.80000000       7.20000000      55.84500000       76        4
Mn       3.60000000       0.00000000      10.80000000      54.93804400       77        5
Mn       3.60000000       1.80000000      12.60000000      54.93804400       78        5
Fe       5.40000000       0.00000000      12.60000000      55.84500000       79        4
Fe       5.40000000       1.80000000      10.80000000      55.84500000       80        4
Co       3.60000000       3.60000000       0.00000000      58.93319400       81        1
Ni       3.60000000       5.40000000       1.80000000      58.69340000       82        2
Cr       5.40000000       3.60000000       1.80000000      51.99610000       83        3
Cr       5.40000000       5.40000000       0.00000000      51.99610000       84        3
Fe       3.60000000       3.60000000       3.60000000      55.84500000       85        4
Cr       3.60000000       5.40000000       5.40000000      51.99610000       86        3
Ni       5.40000000       3.60000000       5.40000000      58.69340000       87        2
Cr       5.40000000       5.40000000       3.60000000      51.99610000       88        3
Fe       3.60000000       3.60000000       7.20000000      55.84500000       89        4
Cr       3.60000000       5.40000000       9.00000000      51.99610000       90        3
Fe       5.40000000       3.60000000       9.00000000      55.84500000       91        4
Ni       5.40000000       5.40000000       7.20000000      58.69340000       92        2
Mn       3.60000000       3.60000000      10.80000000      54.93804400       93        5
Ni       3.60000000       5.40000000      12.60000000      58.69340000       94        2
Fe       5.40000000       3.60000000      12.60000000      55.84500000       95        4
Cr       5.40000000       5.40000000      10.80000000      51.99610000       96        3
Ni       3.60000000       7.20000000       0.00000000      58.69340000       97        2
Fe       3.60000000       9.00000000       1.80000000      55.84500000       98        4
Fe       5.40000000       7.20000000       1.80000000      55.84500000       99        4
Mn       5.40000000       9.00000000       0.00000000      54.93804400      100        5
Cr       3.60000000       7.20000000       3.60000000      51.99610000      101        3
Fe       3.60000000       9.00000000       5.40000000      55.84500000      102        4
Ni       5.40000000       7.20000000       5.40000000      58.69340000      103        2
Ni       5.40000000       9.00000000       3.60000000      58.69340000      104        2
Cr       3.60000000       7.20000000       7.20000000      51.99610000      105        3
Cr       3.60000000       9.00000000       9.00000000      51.99610000      106        3
Ni       5.40000000       7.20000000       9.00000000      58.69340000      107        2
Ni       5.40000000       9.00000000       7.20000000      58.69340000      108        2
Cr       3.60000000       7.20000000      10.80000000      51.99610000      109        3
Cr       3.60000000       9.00000000      12.60000000      51.99610000      110        3
Fe       5.40000000       7.20000000      12.60000000      55.84500000      111        4
Cr       5.40000000       9.00000000      10.80000000      51.99610000      112        3
Mn       3.60000000      10.80000000       0.00000000      54.93804400      113        5
Co       3.60000000      12.60000000       1.80000000      58.93319400      114        1
Co       5.40000000      10.80000000       1.80000000      58.93319400      115        1
Mn       5.40000000      12.60000000       0.00000000      54.93804400      116        5
Mn       3.60000000      10.80000000       3.60000000      54.93804400      117        5
Co       3.60000000      12.60000000       5.40000000      58.93319400      118        1
Fe       5.40000000      10.80000000       5.40000000      55.84500000      119        4
Mn       5.40000000      12.60000000       3.60000000      54.93804400      120        5
Mn       3.60000000      10.80000000       7.20000000      54.93804400      121        5
Co       3.60000000      12.60000000       9.00000000      58.93319400      122        1
Ni       5.40000000      10.80000000       9.00000000      58.69340000      123        2
Co       5.40000000      12.60000000       7.20000000      58.93319400      124        1
Ni       3.60000000      10.80000000      10.80000000      58.69340000      125        2
Mn       3.60000000      12.60000000      12.60000000      54.93804400      126        5
Co       5.40000000      10.80000000      12.60000000      58.93319400      127        1
Mn       5.40000000      12.60000000      10.80000000      54.93804400      128        5
Mn       7.20000000       0.00000000       0.00000000      54.93804400      129        5
Ni       7.20000000       1.80000000       1.80000000      58.69340000      130        2
Mn       9.00000000       0.00000000       1.80000000      54.93804400      131        5
Fe       9.00000000       1.80000000       0.00000000      55.84500000      132        4
Co       7.20000000       0.00000000       3.60000000      58.93319400      133        1
Fe       7.20000000       1.80000000       5.40000000      55.84500000      134        4
Mn       9.00000000       0.00000000       5.40000000      54.93804400      135        5
Fe       9.00000000       1.80000000       3.60000000      55.84500000      136        4
Co       7.20000000       0.00000000       7.20000000      58.93319400      137        1
Ni       7.20000000       1.80000000       9.00000000      58.69340000      138        2
Mn       9.00000000       0.00000000       9.00000000      54.93804400      139        5
Ni       9.00000000       1.80000000       7.20000000      58.69340000      140        2
Fe       7.20000000       0.00000000      10.80000000      55.84500000      141        4
Fe       7.20000000       1.80000000      12.60000000      55.84500000      142        4
Mn       9.00000000       0.00000000      12.60000000      54.93804400      143        5
Co       9.00000000       1.80000000      10.80000000      58.93319400      144        1
Cr       7.20000000       3.60000000       0.00000000      51.99610000      145        3
Ni       7.20000000       5.40000000       1.80000000      58.69340000      146        2
Fe       9.00000000       3.60000000       1.80000000      55.84500000      147        4
Ni       9.00000000       5.40000000       0.00000000      58.69340000      148        2
Cr       7.20000000       3.60000000       3.60000000      51.99610000      149        3
Cr       7.20000000       5.40000000       5.40000000      51.99610000      150        3
Ni       9.00000000       3.60000000       5.40000000      58.69340000      151        2
Ni       9.00000000       5.40000000       3.60000000      58.69340000      152        2
Cr       7.20000000       3.60000000       7.20000000      51.99610000      153        3
Cr       7.20000000       5.40000000       9.00000000      51.99610000      154        3
Ni       9.00000000       3.60000000       9.00000000      58.69340000      155        2
Cr       9.00000000       5.40000000       7.20000000      51.99610000      156        3
Fe       7.20000000       3.60000000      10.80000000      55.84500000      157        4
Ni       7.20000000       5.40000000      12.60000000      58.69340000      158        2
Cr       9.00000000       3.60000000      12.60000000      51.99610000      159        3
Cr       9.00000000       5.40000000      10.80000000      51.99610000      160        3
Fe       7.20000000       7.20000000       0.00000000      55.84500000      161        4
Ni       7.20000000       9.00000000       1.80000000      58.69340000      162        2
Cr       9.00000000       7.20000000       1.80000000      51.99610000      163        3
Cr       9.00000000       9.00000000       0.00000000      51.99610000      164        3
Cr       7.20000000       7.20000000       3.60000000      51.99610000      165        3
Cr       7.20000000       9.00000000       5.40000000      51.99610000      166        3
Ni       9.00000000       7.20000000       5.40000000      58.69340000      167        2
Cr       9.00000000       9.00000000       3.60000000      51.99610000      168        3
Cr       7.20000000       7.20000000       7.20000000      51.99610000      169        3
Cr       7.20000000       9.00000000       9.00000000      51.99610000      170        3
Ni       9.00000000       7.20000000       9.00000000      58.69340000      171        2
Cr       9.00000000       9.00000000       7.20000000      51.99610000      172        3
Fe       7.20000000       7.20000000      10.80000000      55.84500000      173        4
Ni       7.20000000       9.00000000      12.60000000      58.69340000      174        2
Cr       9.00000000       7.20000000      12.60000000      51.99610000      175        3
Cr       9.00000000       9.00000000      10.80000000      51.99610000      176        3
Mn       7.20000000      10.80000000       0.00000000      54.93804400      177        5
Co       7.20000000      12.60000000       1.80000000      58.93319400      178        1
Mn       9.00000000      10.80000000       1.80000000      54.93804400      179        5
Co       9.00000000      12.60000000       0.00000000      58.93319400      180        1
Co       7.20000000      10.80000000       3.60000000      58.93319400      181        1
Mn       7.20000000      12.60000000       5.40000000      54.93804400      182        5
Ni       9.00000000      10.80000000       5.40000000      58.69340000      183        2
Mn       9.00000000      12.60000000       3.60000000      54.93804400      184        5
Cr       7.20000000      10.80000000       7.20000000      51.99610000      185        3
Fe       7.20000000      12.60000000       9.00000000      55.84500000      186        4
Ni       9.00000000      10.80000000       9.00000000      58.69340000      187        2
Co       9.00000000      12.60000000       7.20000000      58.93319400      188        1
Cr       7.20000000      10.80000000      10.80000000      51.99610000      189        3
Co       7.20000000      12.60000000      12.60000000      58.93319400      190        1
Fe       9.00000000      10.80000000      12.60000000      55.84500000      191        4
Mn       9.00000000      12.60000000      10.80000000      54.93804400      192        5
Co      10.80000000       0.00000000       0.00000000      58.93319400      193        1
Mn      10.80000000       1.80000000       1.80000000      54.93804400      194        5
Co      12.60000000       0.00000000       1.80000000      58.93319400      195        1
Mn      12.60000000       1.80000000       0.00000000      54.93804400      196        5
Mn      10.80000000       0.00000000       3.60000000      54.93804400      197        5
Co      10.80000000       1.80000000       5.40000000      58.93319400      198        1
Co      12.60000000       0.00000000       5.40000000      58.93319400      199        1
Co      12.60000000       1.80000000       3.60000000      58.93319400      200        1
Mn      10.80000000       0.00000000       7.20000000      54.93804400      201        5
Mn      10.80000000       1.80000000       9.00000000      54.93804400      202        5
Co      12.60000000       0.00000000       9.00000000      58.93319400      203        1
Mn      12.60000000       1.80000000       7.20000000      54.93804400      204        5
Co      10.80000000       0.00000000      10.80000000      58.93319400      205        1
Mn      10.80000000       1.80000000      12.60000000      54.93804400      206        5
Co      12.60000000       0.00000000      12.60000000      58.93319400      207        1
Co      12.60000000       1.80000000      10.80000000      58.93319400      208        1
Fe      10.80000000       3.60000000       0.00000000      55.84500000      209        4
Ni      10.80000000       5.40000000       1.80000000      58.69340000      210        2
Mn      12.60000000       3.60000000       1.80000000      54.93804400      211        5
Fe      12.60000000       5.40000000       0.00000000      55.84500000      212        4
Fe      10.80000000       3.60000000       3.60000000      55.84500000      213        4
Cr      10.80000000       5.40000000       5.40000000      51.99610000      214        3
Mn      12.60000000       3.60000000       5.40000000      54.93804400      215        5
Co      12.60000000       5.40000000       3.60000000      58.93319400      216        1
Fe      10.80000000       3.60000000       7.20000000      55.84500000      217        4
Cr      10.80000000       5.40000000       9.00000000      51.99610000      218        3
Mn      12.60000000       3.60000000       9.00000000      54.93804400      219        5
Ni      12.60000000       5.40000000       7.20000000      58.69340000      220        2
Co      10.80000000       3.60000000      10.80000000      58.93319400      221        1
Ni      10.80000000       5.40000000      12.60000000      58.69340000      222        2
Mn      12.60000000       3.60000000      12.60000000      54.93804400      223        5
Fe      12.60000000       5.40000000      10.80000000      55.84500000      224        4
Cr      10.80000000       7.20000000       0.00000000      51.99610000      225        3
Ni      10.80000000       9.00000000       1.80000000      58.69340000      226        2
Fe      12.60000000       7.20000000       1.80000000      55.84500000      227        4
Cr      12.60000000       9.00000000       0.00000000      51.99610000      228        3
Cr      10.80000000       7.20000000       3.60000000      51.99610000      229        3
Ni      10.80000000       9.00000000       5.40000000      58.69340000      230        2
Fe      12.60000000       7.20000000       5.40000000      55.84500000      231        4
Fe      12.60000000       9.00000000       3.60000000      55.84500000      232        4
Cr      10.80000000       7.20000000       7.20000000      51.99610000      233        3
Ni      10.80000000       9.00000000       9.00000000      58.69340000      234        2
Ni      12.60000000       7.20000000       9.00000000      58.69340000      235        2
Fe      12.60000000       9.00000000       7.20000000      55.84500000      236        4
Cr      10.80000000       7.20000000      10.80000000      51.99610000      237        3
Ni      10.80000000       9.00000000      12.60000000      58.69340000      238        2
Ni      12.60000000       7.20000000      12.60000000      58.69340000      239        2
Fe      12.60000000       9.00000000      10.80000000      55.84500000      240        4
Co      10.80000000      10.80000000       0.00000000      58.93319400      241        1
Co      10.80000000      12.60000000       1.80000000      58.93319400      242        1
Fe      12.60000000      10.80000000       1.80000000      55.84500000      243        4
Mn      12.60000000      12.60000000       0.00000000      54.93804400      244        5
Fe      10.80000000      10.80000000       3.60000000      55.84500000      245        4
Co      10.80000000      12.60000000       5.40000000      58.93319400      246        1
Fe      12.60000000      10.80000000       5.40000000      55.84500000      247        4
Mn      12.60000000      12.60000000       3.60000000      54.93804400      248        5
Cr      10.80000000      10.80000000       7.20000000      51.99610000      249        3
Co      10.80000000      12.60000000       9.00000000      58.93319400      250        1
Ni      12.60000000      10.80000000       9.00000000      58.69340000      251        2
Mn      12.60000000      12.60000000       7.20000000      54.93804400      252        5
Fe      10.80000000      10.80000000      10.80000000      55.84500000      253        4
Co      10.80000000      12.60000000      12.60000000      58.93319400      254        1
Ni      12.60000000      10.80000000      12.60000000      58.69340000      255        2
Mn      12.60000000      12.60000000      10.80000000      54.93804400      256        5
