256
Lattice="14.4 0.0 0.0 0.0 14.4 0.0 0.0 0.0 14.4" Properties=species:S:1:pos:R:3:masses:R:1:id:I:1:type:I:1 comment="(written by ASE)" energy=-1028.62183276786 pbc="T T T"
Fe       0.00000000       0.00000000       0.00000000      55.84500000        1        4
Cr       0.00000000       1.80000000       1.80000000      51.99610000        2        3
Ni       1.80000000       0.00000000       1.80000000      58.69340000        3        2
Cr       1.80000000       1.80000000       0.00000000      51.99610000        4        3
Co       0.00000000       0.00000000       3.60000000      58.93319400        5        1
Fe       0.00000000       1.80000000       5.40000000      55.84500000        6        4
Ni       1.80000000       0.00000000       5.40000000      58.69340000        7        2
Mn       1.80000000       1.80000000       3.60000000      54.93804400        8        5
Co       0.00000000       0.00000000       7.20000000      58.93319400        9        1
Mn       0.00000000       1.80000000       9.00000000      54.93804400       10        5
Ni       1.80000000       0.00000000       9.00000000      58.69340000       11        2
Mn       1.80000000       1.80000000       7.20000000      54.93804400       12        5
Co       0.00000000       0.00000000      10.80000000      58.93319400       13        1
Mn       0.00000000       1.80000000      12.60000000      54.93804400       14        5
Co       1.80000000       0.00000000      12.60000000      58.93319400       15        1
Co       1.80000000       1.80000000      10.80000000      58.93319400       16        1
Cr       0.00000000       3.60000000       0.00000000      51.99610000       17        3
Cr       0.00000000       5.40000000       1.80000000      51.99610000       18        3
Cr       1.80000000       3.60000000       1.80000000      51.99610000       19        3
Fe       1.80000000       5.40000000       0.00000000      55.84500000       20        4
Fe       0.00000000       3.60000000       3.60000000      55.84500000       21        4
Mn       0.00000000       5.40000000       5.40000000      54.93804400       22        5
Co       1.80000000       3.60000000       5.40000000      58.93319400       23        1
Cr       1.80000000       5.40000000       3.60000000      51.99610000       24        3
Ni       0.00000000       3.60000000       7.20000000      58.69340000       25        2
Mn       0.00000000       5.40000000       9.00000000      54.93804400       26        5
Co       1.80000000       3.60000000       9.00000000      58.93319400       27        1
Fe       1.80000000       5.40000000       7.20000000      55.84500000       28        4
Ni       0.00000000       3.60000000      10.80000000      58.69340000       29        2
Cr       0.00000000       5.40000000      12.60000000      51.99610000       30        3
Co       1.80000000       3.60000000      12.60000000      58.93319400       31        1
Fe       1.80000000       5.40000000      10.80000000      55.84500000       32        4
Cr       0.00000000       7.20000000       0.00000000      51.99610000       33        3
Mn       0.00000000       9.00000000       1.80000000      54.93804400       34        5
Cr       1.80000000       7.20000000       1.80000000      51.99610000       35        3
Fe       1.80000000       9.00000000       0.00000000      55.84500000       36        4
Fe       0.00000000       7.20000000       3.60000000      55.84500000       37        4
Mn       0.00000000       9.00000000       5.40000000      54.93804400       38        5
Cr       1.80000000       7.20000000       5.40000000      51.99610000       39        3
Cr       1.80000000       9.00000000       3.60000000      51.99610000       40        3
Ni       0.00000000       7.20000000       7.20000000      58.69340000       41        2
Mn       0.00000000       9.00000000       9.00000000      54.93804400       42        5
Co       1.80000000       7.20000000       9.00000000      58.93319400       43        1
Co       1.80000000       9.00000000       7.20000000      58.93319400       44        1
Ni       0.00000000       7.20000000      10.80000000      58.69340000       45        2
Fe       0.00000000       9.00000000      12.60000000      55.84500000       46        4
Co       1.80000000       7.20000000      12.60000000      58.93319400       47        1
Fe       1.80000000       9.00000000      10.80000000      55.84500000       48        4
Fe       0.00000000      10.80000000       0.00000000      55.84500000       49        4
Co       0.00000000      12.60000000       1.80000000      58.93319400       50        1
Cr       1.80000000      10.80000000       1.80000000      51.99610000       51        3
Ni       1.80000000      12.60000000       0.00000000      58.69340000       52        2
Fe       0.00000000      10.80000000       3.60000000      55.84500000       53        4
Fe       0.00000000      12.60000000       5.40000000      55.84500000       54        4
Cr       1.80000000      10.80000000       5.40000000      51.99610000       55        3
Mn       1.80000000      12.60000000       3.60000000      54.93804400       56        5
Ni       0.00000000      10.80000000       7.20000000      58.69340000       57        2
Mn       0.00000000      12.60000000       9.00000000      54.93804400       58        5
Ni       1.80000000      10.80000000       9.00000000      58.69340000       59        2
Mn       1.80000000      12.60000000       7.20000000      54.93804400       60        5
Co       0.00000000      10.80000000      10.80000000      58.93319400       61        1
Fe       0.00000000      12.60000000      12.60000000      55.84500000       62        4
Mn       1.80000000      10.80000000      12.60000000      54.93804400       63        5
Ni       1.80000000      12.60000000      10.80000000      58.69340000       64        2
Mn       3.60000000       0.00000000       0.00000000      54.93804400       65        5
Cr       3.60000000       1.80000000       1.80000000      51.99610000       66        3
Co       5.40000000       0.00000000       1.80000000      58.93319400       67        1
Fe       5.40000000       1.80000000       0.00000000      55.84500000       68        4
Fe       3.60000000       0.00000000       3.60000000      55.84500000       69        4
Co       3.60000000       1.80000000       5.40000000      58.93319400       70        1
Fe       5.40000000       0.00000000       5.40000000      55.84500000       71        4
Mn       5.40000000       1.80000000       3.60000000      54.93804400       72        5
Co       3.60000000       0.00000000       7.20000000      58.93319400       73        1
Ni       3.60000000       1.80000000       9.00000000      58.69340000       74        2
Mn       5.40000000       0.00000000       9.00000000      54.93804400       75        5
Ni       5.40000000       1.80000000       7.20000000      58.69340000       76        2
Mn       3.60000000       0.00000000      10.80000000      54.93804400       77        5
Ni       3.60000000       1.80000000      12.60000000      58.69340000       78        2
Fe       5.40000000       0.00000000      12.60000000      55.84500000       79        4
Mn       5.40000000       1.80000000      10.80000000      54.93804400       80        5
Mn       3.60000000       3.60000000       0.00000000      54.93804400       81        5
Cr       3.60000000       5.40000000       1.80000000      51.99610000       82        3
Co       5.40000000       3.60000000       1.80000000      58.93319400       83        1
Ni       5.40000000       5.40000000       0.00000000      58.69340000       84        2
Cr       3.60000000       3.60000000       3.60000000      51.99610000       85        3
Cr       3.60000000       5.40000000       5.40000000      51.99610000       86        3
Cr       5.40000000       3.60000000       5.40000000      51.99610000       87        3
Cr       5.40000000       5.40000000       3.60000000      51.99610000       88        3
Mn       3.60000000       3.60000000       7.20000000      54.93804400       89        5
Fe       3.60000000       5.40000000       9.00000000      55.84500000       90        4
Co       5.40000000       3.60000000       9.00000000      58.93319400       91        1
Fe       5.40000000       5.40000000       7.20000000      55.84500000       92        4
Mn       3.60000000       3.60000000      10.80000000      54.93804400       93        5
Ni       3.60000000       5.40000000      12.60000000      58.69340000       94        2
Co       5.40000000       3.60000000      12.60000000      58.93319400       95        1
Ni       5.40000000       5.40000000      10.80000000      58.69340000       96        2
Mn       3.60000000       7.20000000       0.00000000      54.93804400       97        5
Cr       3.60000000       9.00000000       1.80000000      51.99610000       98        3
Cr       5.40000000       7.20000000       1.80000000      51.99610000       99        3
Fe       5.40000000       9.00000000       0.00000000      55.84500000      100        4
Cr       3.60000000       7.20000000       3.60000000      51.99610000      101        3
Fe       3.60000000       9.00000000       5.40000000      55.84500000      102        4
Cr       5.40000000       7.20000000       5.40000000      51.99610000      103        3
Cr       5.40000000       9.00000000       3.60000000      51.99610000      104        3
Mn       3.60000000       7.20000000       7.20000000      54.93804400      105        5
Ni       3.60000000       9.00000000       9.00000000      58.69340000      106        2
Mn       5.40000000       7.20000000       9.00000000      54.93804400      107        5
Fe       5.40000000       9.00000000       7.20000000      55.84500000      108        4
Mn       3.60000000       7.20000000      10.80000000      54.93804400      109        5
Ni       3.60000000       9.00000000      12.60000000      58.69340000      110        2
Co       5.40000000       7.20000000      12.60000000      58.93319400      111        1
Fe       5.40000000       9.00000000      10.80000000      55.84500000      112        4
Co       3.60000000      10.80000000       0.00000000      58.93319400      113        1
Fe       3.60000000      12.60000000       1.80000000      55.84500000      114        4
Mn       5.40000000      10.80000000       1.80000000      54.93804400      115        5
Mn       5.40000000      12.60000000       0.00000000      54.93804400      116        5
Cr       3.60000000      10.80000000       3.60000000      51.99610000      117        3
Fe       3.60000000      12.60000000       5.40000000      55.84500000      118        4
Mn       5.40000000      10.80000000       5.40000000      54.93804400      119        5
Co       5.40000000      12.60000000       3.60000000      58.93319400      120        1
Co       3.60000000      10.80000000       7.20000000      58.93319400      121        1
Fe       3.60000000      12.60000000       9.00000000      55.84500000      122        4
Mn       5.40000000      10.80000000       9.00000000      54.93804400      123        5
Ni       5.40000000      12.60000000       7.20000000      58.69340000      124        2
Co       3.60000000      10.80000000      10.80000000      58.93319400      125        1
Co       3.60000000      12.60000000      12.60000000      58.93319400      126        1
Mn       5.40000000      10.80000000      12.60000000      54.93804400      127        5
Ni       5.40000000      12.60000000      10.80000000      58.69340000      128        2
Cr       7.20000000       0.00000000       0.00000000      51.99610000      129        3
Ni       7.20000000       1.80000000       1.80000000      58.69340000      130        2
Mn       9.00000000       0.00000000       1.80000000      54.93804400      131        5
Cr       9.00000000       1.80000000       0.00000000      51.99610000      132        3
Ni       7.20000000       0.00000000       3.60000000      58.69340000      133        2
Co       7.20000000       1.80000000       5.40000000      58.93319400      134        1
Ni       9.00000000       0.00000000       5.40000000      58.69340000      135        2
Mn       9.00000000       1.80000000       3.60000000      54.93804400      136        5
Mn       7.20000000       0.00000000       7.20000000      54.93804400      137        5
Ni       7.20000000       1.80000000       9.00000000      58.69340000      138        2
Ni       9.00000000       0.00000000       9.00000000      58.69340000      139        2
Co       9.00000000       1.80000000       7.20000000      58.93319400      140        1
Fe       7.20000000       0.00000000      10.80000000      55.84500000      141        4
Cr       7.20000000       1.80000000      12.60000000      51.99610000      142        3
Cr       9.00000000       0.00000000      12.60000000      51.99610000      143        3
Mn       9.00000000       1.80000000      10.80000000      54.93804400      144        5
Mn       7.20000000       3.60000000       0.00000000      54.93804400      145        5
Fe       7.20000000       5.40000000       1.80000000      55.84500000      146        4
Cr       9.00000000       3.60000000       1.80000000      51.99610000      147        3
Ni       9.00000000       5.40000000       0.00000000      58.69340000      148        2
Fe       7.20000000       3.60000000       3.60000000      55.84500000      149        4
Cr       7.20000000       5.40000000       5.40000000      51.99610000      150        3
Fe       9.00000000       3.60000000       5.40000000      55.84500000      151        4
Mn       9.00000000       5.40000000       3.60000000      54.93804400      152        5
Mn       7.20000000       3.60000000       7.20000000      54.93804400      153        5
Co       7.20000000       5.40000000       9.00000000      58.93319400      154        1
Ni       9.00000000       3.60000000       9.00000000      58.69340000      155        2
Mn       9.00000000       5.40000000       7.20000000      54.93804400      156        5
Mn       7.20000000       3.60000000      10.80000000      54.93804400      157        5
Fe       7.20000000       5.40000000      12.60000000      55.84500000      158        4
Co       9.00000000       3.60000000      12.60000000      58.93319400      159        1
Fe       9.00000000       5.40000000      10.80000000      55.84500000      160        4
Co       7.20000000       7.20000000       0.00000000      58.93319400      161        1
Cr       7.20000000       9.00000000       1.80000000      51.99610000      162        3
Fe       9.00000000       7.20000000       1.80000000      55.84500000      163        4
Co       9.00000000       9.00000000       0.00000000      58.93319400      164        1
Cr       7.20000000       7.20000000       3.60000000      51.99610000      165        3
Cr       7.20000000       9.00000000       5.40000000      51.99610000      166        3
Cr       9.00000000       7.20000000       5.40000000      51.99610000      167        3
Cr       9.00000000       9.00000000       3.60000000      51.99610000      168        3
Fe       7.20000000       7.20000000       7.20000000      55.84500000      169        4
Ni       7.20000000       9.00000000       9.00000000      58.69340000      170        2
Ni       9.00000000       7.20000000       9.00000000      58.69340000      171        2
Co       9.00000000       9.00000000       7.20000000      58.93319400      172        1
Mn       7.20000000       7.20000000      10.80000000      54.93804400      173        5
Ni       7.20000000       9.00000000      12.60000000      58.69340000      174        2
Mn       9.00000000       7.20000000      12.60000000      54.93804400      175        5
Co       9.00000000       9.00000000      10.80000000      58.93319400      176        1
Fe       7.20000000      10.80000000       0.00000000      55.84500000      177        4
Ni       7.20000000      12.60000000       1.80000000      58.69340000      178        2
Mn       9.00000000      10.80000000       1.80000000      54.93804400      179        5
Cr       9.00000000      12.60000000       0.00000000      51.99610000      180        3
Fe       7.20000000      10.80000000       3.60000000      55.84500000      181        4
Fe       7.20000000      12.60000000       5.40000000      55.84500000      182        4
Fe       9.00000000      10.80000000       5.40000000      55.84500000      183        4
Mn       9.00000000      12.60000000       3.60000000      54.93804400      184        5
Ni       7.20000000      10.80000000       7.20000000      58.69340000      185        2
Co       7.20000000      12.60000000       9.00000000      58.93319400      186        1
Mn       9.00000000      10.80000000       9.00000000      54.93804400      187        5
Co       9.00000000      12.60000000       7.20000000      58.93319400      188        1
Fe       7.20000000      10.80000000      10.80000000      55.84500000      189        4
Cr       7.20000000      12.60000000      12.60000000      51.99610000      190        3
Mn       9.00000000      10.80000000      12.60000000      54.93804400      191        5
Mn       9.00000000      12.60000000      10.80000000      54.93804400      192        5
Cr      10.80000000       0.00000000       0.00000000      51.99610000      193        3
Cr      10.80000000       1.80000000       1.80000000      51.99610000      194        3
Fe      12.60000000       0.00000000       1.80000000      55.84500000      195        4
Cr      12.60000000       1.80000000       0.00000000      51.99610000      196        3
Co      10.80000000       0.00000000       3.60000000      58.93319400      197        1
Mn      10.80000000       1.80000000       5.40000000      54.93804400      198        5
Ni      12.60000000       0.00000000       5.40000000      58.69340000      199        2
Cr      12.60000000       1.80000000       3.60000000      51.99610000      200        3
Fe      10.80000000       0.00000000       7.20000000      55.84500000      201        4
Co      10.80000000       1.80000000       9.00000000      58.93319400      202        1
Ni      12.60000000       0.00000000       9.00000000      58.69340000      203        2
Mn      12.60000000       1.80000000       7.20000000      54.93804400      204        5
Co      10.80000000       0.00000000      10.80000000      58.93319400      205        1
Fe      10.80000000       1.80000000      12.60000000      55.84500000      206        4
Ni      12.60000000       0.00000000      12.60000000      58.69340000      207        2
Mn      12.60000000       1.80000000      10.80000000      54.93804400      208        5
Cr      10.80000000       3.60000000       0.00000000      51.99610000      209        3
Cr      10.80000000       5.40000000       1.80000000      51.99610000      210        3
Cr      12.60000000       3.60000000       1.80000000      51.99610000      211        3
Cr      12.60000000       5.40000000       0.00000000      51.99610000      212        3
Cr      10.80000000       3.60000000       3.60000000      51.99610000      213        3
Ni      10.80000000       5.40000000       5.40000000      58.69340000      214        2
Co      12.60000000       3.60000000       5.40000000      58.93319400      215        1
Mn      12.60000000       5.40000000       3.60000000      54.93804400      216        5
Mn      10.80000000       3.60000000       7.20000000      54.93804400      217        5
Co      10.80000000       5.40000000       9.00000000      58.93319400      218        1
Ni      12.60000000       3.60000000       9.00000000      58.69340000      219        2
Mn      12.60000000       5.40000000       7.20000000      54.93804400      220        5
Co      10.80000000       3.60000000      10.80000000      58.93319400      221        1
Ni      10.80000000       5.40000000      12.60000000      58.69340000      222        2
Fe      12.60000000       3.60000000      12.60000000      55.84500000      223        4
Mn      12.60000000       5.40000000      10.80000000      54.93804400      224        5
Mn      10.80000000       7.20000000       0.00000000      54.93804400      225        5
Fe      10.80000000       9.00000000       1.80000000      55.84500000      226        4
Fe      12.60000000       7.20000000       1.80000000      55.84500000      227        4
Co      12.60000000       9.00000000       0.00000000      58.93319400      228        1
Co      10.80000000       7.20000000       3.60000000      58.93319400      229        1
Mn      10.80000000       9.00000000       5.40000000      54.93804400      230        5
Co      12.60000000       7.20000000       5.40000000      58.93319400      231        1
Ni      12.60000000       9.00000000       3.60000000      58.69340000      232        2
Mn      10.80000000       7.20000000       7.20000000      54.93804400      233        5
Fe      10.80000000       9.00000000       9.00000000      55.84500000      234        4
Ni      12.60000000       7.20000000       9.00000000      58.69340000      235        2
Co      12.60000000       9.00000000       7.20000000      58.93319400      236        1
Mn      10.80000000       7.20000000      10.80000000      54.93804400      237        5
Ni      10.80000000       9.00000000      12.60000000      58.69340000      238        2
Fe      12.60000000       7.20000000      12.60000000      55.84500000      239        4
Co      12.60000000       9.00000000      10.80000000      58.93319400      240        1
Fe      10.80000000      10.80000000       0.00000000      55.84500000      241        4
Ni      10.80000000      12.60000000       1.80000000      58.69340000      242        2
Ni      12.60000000      10.80000000       1.80000000      58.69340000      243        2
Mn      12.60000000      12.60000000       0.00000000      54.93804400      244        5
Co      10.80000000      10.80000000       3.60000000      58.93319400      245        1
Mn      10.80000000      12.60000000       5.40000000      54.93804400      246        5
Fe      12.60000000      10.80000000       5.40000000      55.84500000      247        4
Mn      12.60000000      12.60000000       3.60000000      54.93804400      248        5
Ni      10.80000000      10.80000000       7.20000000      58.69340000      249        2
Mn      10.80000000      12.60000000       9.00000000      54.93804400      250        5
Fe      12.60000000      10.80000000       9.00000000      55.84500000      251        4
Co      12.60000000      12.60000000       7.20000000      58.93319400      252        1
Ni      10.80000000      10.80000000      10.80000000      58.69340000      253        2
Fe      10.80000000      12.60000000      12.60000000      55.84500000      254        4
Co      12.60000000      10.80000000      12.60000000      58.93319400      255        1
Fe      12.60000000      12.60000000      10.80000000      55.84500000      256        4
