256
Lattice="14.4 0.0 0.0 0.0 14.4 0.0 0.0 0.0 14.4" Properties=species:S:1:pos:R:3:masses:R:1:id:I:1:type:I:1 comment="(written by ASE)" energy=-1024.48116877992 pbc="T T T"
Fe       0.00000000       0.00000000       0.00000000      55.84500000        1        4
Mn       0.00000000       1.80000000       1.80000000      54.93804400        2        5
Mn       1.80000000       0.00000000       1.80000000      54.93804400        3        5
Ni       1.80000000       1.80000000       0.00000000      58.69340000        4        2
Mn       0.00000000       0.00000000       3.60000000      54.93804400        5        5
Ni       0.00000000       1.80000000       5.40000000      58.69340000        6        2
Fe       1.80000000       0.00000000       5.40000000      55.84500000        7        4
Fe       1.80000000       1.80000000       3.60000000      55.84500000        8        4
Co       0.00000000       0.00000000       7.20000000      58.93319400        9        1
Ni       0.00000000       1.80000000       9.00000000      58.69340000       10        2
Co       1.80000000       0.00000000       9.00000000      58.93319400       11        1
Mn       1.80000000       1.80000000       7.20000000      54.93804400       12        5
Fe       0.00000000       0.00000000      10.80000000      55.84500000       13        4
Co       0.00000000       1.80000000      12.60000000      58.93319400       14        1
Ni       1.80000000       0.00000000      12.60000000      58.69340000       15        2
Mn       1.80000000       1.80000000      10.80000000      54.93804400       16        5
Co       0.00000000       3.60000000       0.00000000      58.93319400       17        1
Cr       0.00000000       5.40000000       1.80000000      51.99610000       18        3
Cr       1.80000000       3.60000000       1.80000000      51.99610000       19        3
Cr       1.80000000       5.40000000       0.00000000      51.99610000       20        3
Co       0.00000000       3.60000000       3.60000000      58.93319400       21        1
Co       0.00000000       5.40000000       5.40000000      58.93319400       22        1
Ni       1.80000000       3.60000000       5.40000000      58.69340000       23        2
Cr       1.80000000       5.40000000       3.60000000      51.99610000       24        3
Co       0.00000000       3.60000000       7.20000000      58.93319400       25        1
Co       0.00000000       5.40000000       9.00000000      58.93319400       26        1
Ni       1.80000000       3.60000000       9.00000000      58.69340000       27        2
Co       1.80000000       5.40000000       7.20000000      58.93319400       28        1
Co       0.00000000       3.60000000      10.80000000      58.93319400       29        1
Cr       0.00000000       5.40000000      12.60000000      51.99610000       30        3
Fe       1.80000000       3.60000000      12.60000000      55.84500000       31        4
Mn       1.80000000       5.40000000      10.80000000      54.93804400       32        5
Cr       0.00000000       7.20000000       0.00000000      51.99610000       33        3
Cr       0.00000000       9.00000000       1.80000000      51.99610000       34        3
Cr       1.80000000       7.20000000       1.80000000      51.99610000       35        3
Cr       1.80000000       9.00000000       0.00000000      51.99610000       36        3
Cr       0.00000000       7.20000000       3.60000000      51.99610000       37        3
Mn       0.00000000       9.00000000       5.40000000      54.93804400       38        5
Cr       1.80000000       7.20000000       5.40000000      51.99610000       39        3
Fe       1.80000000       9.00000000       3.60000000      55.84500000       40        4
Mn       0.00000000       7.20000000       7.20000000      54.93804400       41        5
Fe       0.00000000       9.00000000       9.00000000      55.84500000       42        4
Ni       1.80000000       7.20000000       9.00000000      58.69340000       43        2
Fe       1.80000000       9.00000000       7.20000000      55.84500000       44        4
Cr       0.00000000       7.20000000      10.80000000      51.99610000       45        3
Co       0.00000000       9.00000000      12.60000000      58.93319400       46        1
Fe       1.80000000       7.20000000      12.60000000      55.84500000       47        4
Mn       1.80000000       9.00000000      10.80000000      54.93804400       48        5
Fe       0.00000000      10.80000000       0.00000000      55.84500000       49        4
Ni       0.00000000      12.60000000       1.80000000      58.69340000       50        2
Mn       1.80000000      10.80000000       1.80000000      54.93804400       51        5
Fe       1.80000000      12.60000000       0.00000000      55.84500000       52        4
Fe       0.00000000      10.80000000       3.60000000      55.84500000       53        4
Ni       0.00000000      12.60000000       5.40000000      58.69340000       54        2
Fe       1.80000000      10.80000000       5.40000000      55.84500000       55        4
Fe       1.80000000      12.60000000       3.60000000      55.84500000       56        4
Ni       0.00000000      10.80000000       7.20000000      58.69340000       57        2
Fe       0.00000000      12.60000000       9.00000000      55.84500000       58        4
Ni       1.80000000      10.80000000       9.00000000      58.69340000       59        2
Mn       1.80000000      12.60000000       7.20000000      54.93804400       60        5
Fe       0.00000000      10.80000000      10.80000000      55.84500000       61        4
Mn       0.00000000      12.60000000      12.60000000      54.93804400       62        5
Ni       1.80000000      10.80000000      12.60000000      58.69340000       63        2
Mn       1.80000000      12.60000000      10.80000000      54.93804400       64        5
Mn       3.60000000       0.00000000       0.00000000      54.93804400       65        5
Fe       3.60000000       1.80000000       1.80000000      55.84500000       66        4
Ni       5.40000000       0.00000000       1.80000000      58.69340000       67        2
Fe       5.40000000       1.80000000       0.00000000      55.84500000       68        4
Mn       3.60000000       0.00000000       3.60000000      54.93804400       69        5
Cr       3.60000000       1.80000000       5.40000000      51.99610000       70        3
Fe       5.40000000       0.00000000       5.40000000      55.84500000       71        4
Co       5.40000000       1.80000000       3.60000000      58.93319400       72        1
Co       3.60000000       0.00000000       7.20000000      58.93319400       73        1
Ni       3.60000000       1.80000000       9.00000000      58.69340000       74        2
Co       5.40000000       0.00000000       9.00000000      58.93319400       75        1
Mn       5.40000000       1.80000000       7.20000000      54.93804400       76        5
Co       3.60000000       0.00000000      10.80000000      58.93319400       77        1
Fe       3.60000000       1.80000000      12.60000000      55.84500000       78        4
Mn       5.40000000       0.00000000      12.60000000      54.93804400       79        5
Fe       5.40000000       1.80000000      10.80000000      55.84500000       80        4
Mn       3.60000000       3.60000000       0.00000000      54.93804400       81        5
Cr       3.60000000       5.40000000       1.80000000      51.99610000       82        3
Mn       5.40000000       3.60000000       1.80000000      54.93804400       83        5
Fe       5.40000000       5.40000000       0.00000000      55.84500000       84        4
Cr       3.60000000       3.60000000       3.60000000      51.99610000       85        3
Co       3.60000000       5.40000000       5.40000000      58.93319400       86        1
Cr       5.40000000       3.60000000       5.40000000      51.99610000       87        3
Cr       5.40000000       5.40000000       3.60000000      51.99610000       88        3
Fe       3.60000000       3.60000000       7.20000000      55.84500000       89        4
Co       3.60000000       5.40000000       9.00000000      58.93319400       90        1
Ni       5.40000000       3.60000000       9.00000000      58.69340000       91        2
Mn       5.40000000       5.40000000       7.20000000      54.93804400       92        5
Mn       3.60000000       3.60000000      10.80000000      54.93804400       93        5
Ni       3.60000000       5.40000000      12.60000000      58.69340000       94        2
Mn       5.40000000       3.60000000      12.60000000      54.93804400       95        5
Fe       5.40000000       5.40000000      10.80000000      55.84500000       96        4
Cr       3.60000000       7.20000000       0.00000000      51.99610000       97        3
Fe       3.60000000       9.00000000       1.80000000      55.84500000       98        4
Cr       5.40000000       7.20000000       1.80000000      51.99610000       99        3
Co       5.40000000       9.00000000       0.00000000      58.93319400      100        1
Cr       3.60000000       7.20000000       3.60000000      51.99610000      101        3
Mn       3.60000000       9.00000000       5.40000000      54.93804400      102        5
Ni       5.40000000       7.20000000       5.40000000      58.69340000      103        2
Co       5.40000000       9.00000000       3.60000000      58.93319400      104        1
Cr       3.60000000       7.20000000       7.20000000      51.99610000      105        3
Mn       3.60000000       9.00000000       9.00000000      54.93804400      106        5
Mn       5.40000000       7.20000000       9.00000000      54.93804400      107        5
Fe       5.40000000       9.00000000       7.20000000      55.84500000      108        4
Co       3.60000000       7.20000000      10.80000000      58.93319400      109        1
Ni       3.60000000       9.00000000      12.60000000      58.69340000      110        2
Mn       5.40000000       7.20000000      12.60000000      54.93804400      111        5
Ni       5.40000000       9.00000000      10.80000000      58.69340000      112        2
Mn       3.60000000      10.80000000       0.00000000      54.93804400      113        5
Fe       3.60000000      12.60000000       1.80000000      55.84500000      114        4
Ni       5.40000000      10.80000000       1.80000000      58.69340000      115        2
Fe       5.40000000      12.60000000       0.00000000      55.84500000      116        4
Ni       3.60000000      10.80000000       3.60000000      58.69340000      117        2
Mn       3.60000000      12.60000000       5.40000000      54.93804400      118        5
Co       5.40000000      10.80000000       5.40000000      58.93319400      119        1
Co       5.40000000      12.60000000       3.60000000      58.93319400      120        1
Co       3.60000000      10.80000000       7.20000000      58.93319400      121        1
Cr       3.60000000      12.60000000       9.00000000      51.99610000      122        3
Mn       5.40000000      10.80000000       9.00000000      54.93804400      123        5
Ni       5.40000000      12.60000000       7.20000000      58.69340000      124        2
Fe       3.60000000      10.80000000      10.80000000      55.84500000      125        4
Co       3.60000000      12.60000000      12.60000000      58.93319400      126        1
Co       5.40000000      10.80000000      12.60000000      58.93319400      127        1
Ni       5.40000000      12.60000000      10.80000000      58.69340000      128        2
Mn       7.20000000       0.00000000       0.00000000      54.93804400      129        5
Fe       7.20000000       1.80000000       1.80000000      55.84500000      130        4
Ni       9.00000000       0.00000000       1.80000000      58.69340000      131        2
Cr       9.00000000       1.80000000       0.00000000      51.99610000      132        3
Mn       7.20000000       0.00000000       3.60000000      54.93804400      133        5
Cr       7.20000000       1.80000000       5.40000000      51.99610000      134        3
Fe       9.00000000       0.00000000       5.40000000      55.84500000      135        4
Mn       9.00000000       1.80000000       3.60000000      54.93804400      136        5
Mn       7.20000000       0.00000000       7.20000000      54.93804400      137        5
Co       7.20000000       1.80000000       9.00000000      58.93319400      138        1
Fe       9.00000000       0.00000000       9.00000000      55.84500000      139        4
Ni       9.00000000       1.80000000       7.20000000      58.69340000      140        2
Ni       7.20000000       0.00000000      10.80000000      58.69340000      141        2
Cr       7.20000000       1.80000000      12.60000000      51.99610000      142        3
Fe       9.00000000       0.00000000      12.60000000      55.84500000      143        4
Mn       9.00000000       1.80000000      10.80000000      54.93804400      144        5
Cr       7.20000000       3.60000000       0.00000000      51.99610000      145        3
Cr       7.20000000       5.40000000       1.80000000      51.99610000      146        3
Cr       9.00000000       3.60000000       1.80000000      51.99610000      147        3
Cr       9.00000000       5.40000000       0.00000000      51.99610000      148        3
Cr       7.20000000       3.60000000       3.60000000      51.99610000      149        3
Cr       7.20000000       5.40000000       5.40000000      51.99610000      150        3
Cr       9.00000000       3.60000000       5.40000000      51.99610000      151        3
Cr       9.00000000       5.40000000       3.60000000      51.99610000      152        3
Co       7.20000000       3.60000000       7.20000000      58.93319400      153        1
Mn       7.20000000       5.40000000       9.00000000      54.93804400      154        5
Ni       9.00000000       3.60000000       9.00000000      58.69340000      155        2
Co       9.00000000       5.40000000       7.20000000      58.93319400      156        1
Fe       7.20000000       3.60000000      10.80000000      55.84500000      157        4
Cr       7.20000000       5.40000000      12.60000000      51.99610000      158        3
Cr       9.00000000       3.60000000      12.60000000      51.99610000      159        3
Co       9.00000000       5.40000000      10.80000000      58.93319400      160        1
Cr       7.20000000       7.20000000       0.00000000      51.99610000      161        3
Co       7.20000000       9.00000000       1.80000000      58.93319400      162        1
Co       9.00000000       7.20000000       1.80000000      58.93319400      163        1
Cr       9.00000000       9.00000000       0.00000000      51.99610000      164        3
Co       7.20000000       7.20000000       3.60000000      58.93319400      165        1
Ni       7.20000000       9.00000000       5.40000000      58.69340000      166        2
Co       9.00000000       7.20000000       5.40000000      58.93319400      167        1
Ni       9.00000000       9.00000000       3.60000000      58.69340000      168        2
Fe       7.20000000       7.20000000       7.20000000      55.84500000      169        4
Ni       7.20000000       9.00000000       9.00000000      58.69340000      170        2
Mn       9.00000000       7.20000000       9.00000000      54.93804400      171        5
Mn       9.00000000       9.00000000       7.20000000      54.93804400      172        5
Fe       7.20000000       7.20000000      10.80000000      55.84500000      173        4
Mn       7.20000000       9.00000000      12.60000000      54.93804400      174        5
Co       9.00000000       7.20000000      12.60000000      58.93319400      175        1
Ni       9.00000000       9.00000000      10.80000000      58.69340000      176        2
Ni       7.20000000      10.80000000       0.00000000      58.69340000      177        2
Co       7.20000000      12.60000000       1.80000000      58.93319400      178        1
Co       9.00000000      10.80000000       1.80000000      58.93319400      179        1
Fe       9.00000000      12.60000000       0.00000000      55.84500000      180        4
Ni       7.20000000      10.80000000       3.60000000      58.69340000      181        2
Fe       7.20000000      12.60000000       5.40000000      55.84500000      182        4
Fe       9.00000000      10.80000000       5.40000000      55.84500000      183        4
Ni       9.00000000      12.60000000       3.60000000      58.69340000      184        2
Mn       7.20000000      10.80000000       7.20000000      54.93804400      185        5
Fe       7.20000000      12.60000000       9.00000000      55.84500000      186        4
Co       9.00000000      10.80000000       9.00000000      58.93319400      187        1
Mn       9.00000000      12.60000000       7.20000000      54.93804400      188        5
Co       7.20000000      10.80000000      10.80000000      58.93319400      189        1
Mn       7.20000000      12.60000000      12.60000000      54.93804400      190        5
Fe       9.00000000      10.80000000      12.60000000      55.84500000      191        4
Ni       9.00000000      12.60000000      10.80000000      58.69340000      192        2
Mn      10.80000000       0.00000000       0.00000000      54.93804400      193        5
Ni      10.80000000       1.80000000       1.80000000      58.69340000      194        2
Fe      12.60000000       0.00000000       1.80000000      55.84500000      195        4
Ni      12.60000000       1.80000000       0.00000000      58.69340000      196        2
Co      10.80000000       0.00000000       3.60000000      58.93319400      197        1
Co      10.80000000       1.80000000       5.40000000      58.93319400      198        1
Co      12.60000000       0.00000000       5.40000000      58.93319400      199        1
Ni      12.60000000       1.80000000       3.60000000      58.69340000      200        2
Mn      10.80000000       0.00000000       7.20000000      54.93804400      201        5
Fe      10.80000000       1.80000000       9.00000000      55.84500000      202        4
Ni      12.60000000       0.00000000       9.00000000      58.69340000      203        2
Ni      12.60000000       1.80000000       7.20000000      58.69340000      204        2
Mn      10.80000000       0.00000000      10.80000000      54.93804400      205        5
Fe      10.80000000       1.80000000      12.60000000      55.84500000      206        4
Ni      12.60000000       0.00000000      12.60000000      58.69340000      207        2
Fe      12.60000000       1.80000000      10.80000000      55.84500000      208        4
Co      10.80000000       3.60000000       0.00000000      58.93319400      209        1
Cr      10.80000000       5.40000000       1.80000000      51.99610000      210        3
Co      12.60000000       3.60000000       1.80000000      58.93319400      211        1
Cr      12.60000000       5.40000000       0.00000000      51.99610000      212        3
Co      10.80000000       3.60000000       3.60000000      58.93319400      213        1
Cr      10.80000000       5.40000000       5.40000000      51.99610000      214        3
Co      12.60000000       3.60000000       5.40000000      58.93319400      215        1
Mn      12.60000000       5.40000000       3.60000000      54.93804400      216        5
Mn      10.80000000       3.60000000       7.20000000      54.93804400      217        5
Fe      10.80000000       5.40000000       9.00000000      55.84500000      218        4
Mn      12.60000000       3.60000000       9.00000000      54.93804400      219        5
Cr      12.60000000       5.40000000       7.20000000      51.99610000      220        3
Mn      10.80000000       3.60000000      10.80000000      54.93804400      221        5
Cr      10.80000000       5.40000000      12.60000000      51.99610000      222        3
Mn      12.60000000       3.60000000      12.60000000      54.93804400      223        5
Fe      12.60000000       5.40000000      10.80000000      55.84500000      224        4
Cr      10.80000000       7.20000000       0.00000000      51.99610000      225        3
Co      10.80000000       9.00000000       1.80000000      58.93319400      226        1
Cr      12.60000000       7.20000000       1.80000000      51.99610000      227        3
Cr      12.60000000       9.00000000       0.00000000      51.99610000      228        3
Co      10.80000000       7.20000000       3.60000000      58.93319400      229        1
Ni      10.80000000       9.00000000       5.40000000      58.69340000      230        2
Fe      12.60000000       7.20000000       5.40000000      55.84500000      231        4
Ni      12.60000000       9.00000000       3.60000000      58.69340000      232        2
Mn      10.80000000       7.20000000       7.20000000      54.93804400      233        5
Fe      10.80000000       9.00000000       9.00000000      55.84500000      234        4
Mn      12.60000000       7.20000000       9.00000000      54.93804400      235        5
Fe      12.60000000       9.00000000       7.20000000      55.84500000      236        4
Mn      10.80000000       7.20000000      10.80000000      54.93804400      237        5
Co      10.80000000       9.00000000      12.60000000      58.93319400      238        1
Cr      12.60000000       7.20000000      12.60000000      51.99610000      239        3
Cr      12.60000000       9.00000000      10.80000000      51.99610000      240        3
Mn      10.80000000      10.80000000       0.00000000      54.93804400      241        5
Ni      10.80000000      12.60000000       1.80000000      58.69340000      242        2
Mn      12.60000000      10.80000000       1.80000000      54.93804400      243        5
Mn      12.60000000      12.60000000       0.00000000      54.93804400      244        5
Co      10.80000000      10.80000000       3.60000000      58.93319400      245        1
Fe      10.80000000      12.60000000       5.40000000      55.84500000      246        4
Mn      12.60000000      10.80000000       5.40000000      54.93804400      247        5
Mn      12.60000000      12.60000000       3.60000000      54.93804400      248        5
Ni      10.80000000      10.80000000       7.20000000      58.69340000      249        2
Fe      10.80000000      12.60000000       9.00000000      55.84500000      250        4
Mn      12.60000000      10.80000000       9.00000000      54.93804400      251        5
Mn      12.60000000      12.60000000       7.20000000      54.93804400      252        5
Mn      10.80000000      10.80000000      10.80000000      54.93804400      253        5
Fe      10.80000000      12.60000000      12.60000000      55.84500000      254        4
Ni      12.60000000      10.80000000      12.60000000      58.69340000      255        2
Mn      12.60000000      12.60000000      10.80000000      54.93804400      256        5
