256
Lattice="14.4 0.0 0.0 0.0 14.4 0.0 0.0 0.0 14.4" Properties=species:S:1:pos:R:3:masses:R:1:id:I:1:type:I:1 comment="(written by ASE)" energy=-1025.89748721068 pbc="T T T"
Ni       0.00000000       0.00000000       0.00000000      58.69340000        1        2
Ni       0.00000000       1.80000000       1.80000000      58.69340000        2        2
Cr       1.80000000       0.00000000       1.80000000      51.99610000        3        3
Mn       1.80000000       1.80000000       0.00000000      54.93804400        4        5
Ni       0.00000000       0.00000000       3.60000000      58.69340000        5        2
Mn       0.00000000       1.80000000       5.40000000      54.93804400        6        5
Ni       1.80000000       0.00000000       5.40000000      58.69340000        7        2
Fe       1.80000000       1.80000000       3.60000000      55.84500000        8        4
Ni       0.00000000       0.00000000       7.20000000      58.69340000        9        2
Co       0.00000000       1.80000000       9.00000000      58.93319400       10        1
Cr       1.80000000       0.00000000       9.00000000      51.99610000       11        3
Cr       1.80000000       1.80000000       7.20000000      51.99610000       12        3
Co       0.00000000       0.00000000      10.80000000      58.93319400       13        1
Fe       0.00000000       1.80000000      12.60000000      55.84500000       14        4
Mn       1.80000000       0.00000000      12.60000000      54.93804400       15        5
Mn       1.80000000       1.80000000      10.80000000      54.93804400       16        5
Ni       0.00000000       3.60000000       0.00000000      58.69340000       17        2
Cr       0.00000000       5.40000000       1.80000000      51.99610000       18        3
Fe       1.80000000       3.60000000       1.80000000      55.84500000       19        4
Mn       1.80000000       5.40000000       0.00000000      54.93804400       20        5
Ni       0.00000000       3.60000000       3.60000000      58.69340000       21        2
Mn       0.00000000       5.40000000       5.40000000      54.93804400       22        5
Fe       1.80000000       3.60000000       5.40000000      55.84500000       23        4
Co       1.80000000       5.40000000       3.60000000      58.93319400       24        1
Fe       0.00000000       3.60000000       7.20000000      55.84500000       25        4
Mn       0.00000000       5.40000000       9.00000000      54.93804400       26        5
Mn       1.80000000       3.60000000       9.00000000      54.93804400       27        5
Co       1.80000000       5.40000000       7.20000000      58.93319400       28        1
Fe       0.00000000       3.60000000      10.80000000      55.84500000       29        4
Fe       0.00000000       5.40000000      12.60000000      55.84500000       30        4
Mn       1.80000000       3.60000000      12.60000000      54.93804400       31        5
Co       1.80000000       5.40000000      10.80000000      58.93319400       32        1
Co       0.00000000       7.20000000       0.00000000      58.93319400       33        1
Ni       0.00000000       9.00000000       1.80000000      58.69340000       34        2
Co       1.80000000       7.20000000       1.80000000      58.93319400       35        1
Mn       1.80000000       9.00000000       0.00000000      54.93804400       36        5
Fe       0.00000000       7.20000000       3.60000000      55.84500000       37        4
Cr       0.00000000       9.00000000       5.40000000      51.99610000       38        3
Mn       1.80000000       7.20000000       5.40000000      54.93804400       39        5
Ni       1.80000000       9.00000000       3.60000000      58.69340000       40        2
Fe       0.00000000       7.20000000       7.20000000      55.84500000       41        4
Mn       0.00000000       9.00000000       9.00000000      54.93804400       42        5
Fe       1.80000000       7.20000000       9.00000000      55.84500000       43        4
Co       1.80000000       9.00000000       7.20000000      58.93319400       44        1
Co       0.00000000       7.20000000      10.80000000      58.93319400       45        1
Mn       0.00000000       9.00000000      12.60000000      54.93804400       46        5
Fe       1.80000000       7.20000000      12.60000000      55.84500000       47        4
Mn       1.80000000       9.00000000      10.80000000      54.93804400       48        5
Co       0.00000000      10.80000000       0.00000000      58.93319400       49        1
Cr       0.00000000      12.60000000       1.80000000      51.99610000       50        3
Fe       1.80000000      10.80000000       1.80000000      55.84500000       51        4
Ni       1.80000000      12.60000000       0.00000000      58.69340000       52        2
Ni       0.00000000      10.80000000       3.60000000      58.69340000       53        2
Cr       0.00000000      12.60000000       5.40000000      51.99610000       54        3
Cr       1.80000000      10.80000000       5.40000000      51.99610000       55        3
Ni       1.80000000      12.60000000       3.60000000      58.69340000       56        2
Cr       0.00000000      10.80000000       7.20000000      51.99610000       57        3
Cr       0.00000000      12.60000000       9.00000000      51.99610000       58        3
Ni       1.80000000      10.80000000       9.00000000      58.69340000       59        2
Ni       1.80000000      12.60000000       7.20000000      58.69340000       60        2
Cr       0.00000000      10.80000000      10.80000000      51.99610000       61        3
Cr       0.00000000      12.60000000      12.60000000      51.99610000       62        3
Cr       1.80000000      10.80000000      12.60000000      51.99610000       63        3
Ni       1.80000000      12.60000000      10.80000000      58.69340000       64        2
Co       3.60000000       0.00000000       0.00000000      58.93319400       65        1
Co       3.60000000       1.80000000       1.80000000      58.93319400       66        1
Mn       5.40000000       0.00000000       1.80000000      54.93804400       67        5
Ni       5.40000000       1.80000000       0.00000000      58.69340000       68        2
Mn       3.60000000       0.00000000       3.60000000      54.93804400       69        5
Co       3.60000000       1.80000000       5.40000000      58.93319400       70        1
Ni       5.40000000       0.00000000       5.40000000      58.69340000       71        2
Ni       5.40000000       1.80000000       3.60000000      58.69340000       72        2
Cr       3.60000000       0.00000000       7.20000000      51.99610000       73        3
Ni       3.60000000       1.80000000       9.00000000      58.69340000       74        2
Cr       5.40000000       0.00000000       9.00000000      51.99610000       75        3
Co       5.40000000       1.80000000       7.20000000      58.93319400       76        1
Co       3.60000000       0.00000000      10.80000000      58.93319400       77        1
Fe       3.60000000       1.80000000      12.60000000      55.84500000       78        4
Fe       5.40000000       0.00000000      12.60000000      55.84500000       79        4
Mn       5.40000000       1.80000000      10.80000000      54.93804400       80        5
Fe       3.60000000       3.60000000       0.00000000      55.84500000       81        4
Ni       3.60000000       5.40000000       1.80000000      58.69340000       82        2
Ni       5.40000000       3.60000000       1.80000000      58.69340000       83        2
Cr       5.40000000       5.40000000       0.00000000      51.99610000       84        3
Mn       3.60000000       3.60000000       3.60000000      54.93804400       85        5
Fe       3.60000000       5.40000000       5.40000000      55.84500000       86        4
Mn       5.40000000       3.60000000       5.40000000      54.93804400       87        5
Ni       5.40000000       5.40000000       3.60000000      58.69340000       88        2
Fe       3.60000000       3.60000000       7.20000000      55.84500000       89        4
Mn       3.60000000       5.40000000       9.00000000      54.93804400       90        5
Mn       5.40000000       3.60000000       9.00000000      54.93804400       91        5
Co       5.40000000       5.40000000       7.20000000      58.93319400       92        1
Fe       3.60000000       3.60000000      10.80000000      55.84500000       93        4
Co       3.60000000       5.40000000      12.60000000      58.93319400       94        1
Mn       5.40000000       3.60000000      12.60000000      54.93804400       95        5
Co       5.40000000       5.40000000      10.80000000      58.93319400       96        1
Ni       3.60000000       7.20000000       0.00000000      58.69340000       97        2
Fe       3.60000000       9.00000000       1.80000000      55.84500000       98        4
Ni       5.40000000       7.20000000       1.80000000      58.69340000       99        2
Mn       5.40000000       9.00000000       0.00000000      54.93804400      100        5
Cr       3.60000000       7.20000000       3.60000000      51.99610000      101        3
Co       3.60000000       9.00000000       5.40000000      58.93319400      102        1
Cr       5.40000000       7.20000000       5.40000000      51.99610000      103        3
Mn       5.40000000       9.00000000       3.60000000      54.93804400      104        5
Mn       3.60000000       7.20000000       7.20000000      54.93804400      105        5
Fe       3.60000000       9.00000000       9.00000000      55.84500000      106        4
Fe       5.40000000       7.20000000       9.00000000      55.84500000      107        4
Co       5.40000000       9.00000000       7.20000000      58.93319400      108        1
Mn       3.60000000       7.20000000      10.80000000      54.93804400      109        5
Co       3.60000000       9.00000000      12.60000000      58.93319400      110        1
Fe       5.40000000       7.20000000      12.60000000      55.84500000      111        4
Mn       5.40000000       9.00000000      10.80000000      54.93804400      112        5
Ni       3.60000000      10.80000000       0.00000000      58.69340000      113        2
Mn       3.60000000      12.60000000       1.80000000      54.93804400      114        5
Fe       5.40000000      10.80000000       1.80000000      55.84500000      115        4
Fe       5.40000000      12.60000000       0.00000000      55.84500000      116        4
Co       3.60000000      10.80000000       3.60000000      58.93319400      117        1
Cr       3.60000000      12.60000000       5.40000000      51.99610000      118        3
Fe       5.40000000      10.80000000       5.40000000      55.84500000      119        4
Co       5.40000000      12.60000000       3.60000000      58.93319400      120        1
Cr       3.60000000      10.80000000       7.20000000      51.99610000      121        3
Cr       3.60000000      12.60000000       9.00000000      51.99610000      122        3
Mn       5.40000000      10.80000000       9.00000000      54.93804400      123        5
Ni       5.40000000      12.60000000       7.20000000      58.69340000      124        2
Co       3.60000000      10.80000000      10.80000000      58.93319400      125        1
Mn       3.60000000      12.60000000      12.60000000      54.93804400      126        5
Fe       5.40000000      10.80000000      12.60000000      55.84500000      127        4
Mn       5.40000000      12.60000000      10.80000000      54.93804400      128        5
Mn       7.20000000       0.00000000       0.00000000      54.93804400      129        5
Ni       7.20000000       1.80000000       1.80000000      58.69340000      130        2
Cr       9.00000000       0.00000000       1.80000000      51.99610000      131        3
Ni       9.00000000       1.80000000       0.00000000      58.69340000      132        2
Cr       7.20000000       0.00000000       3.60000000      51.99610000      133        3
Cr       7.20000000       1.80000000       5.40000000      51.99610000      134        3
Ni       9.00000000       0.00000000       5.40000000      58.69340000      135        2
Ni       9.00000000       1.80000000       3.60000000      58.69340000      136        2
Cr       7.20000000       0.00000000       7.20000000      51.99610000      137        3
Co       7.20000000       1.80000000       9.00000000      58.93319400      138        1
Mn       9.00000000       0.00000000       9.00000000      54.93804400      139        5
Ni       9.00000000       1.80000000       7.20000000      58.69340000      140        2
Fe       7.20000000       0.00000000      10.80000000      55.84500000      141        4
Fe       7.20000000       1.80000000      12.60000000      55.84500000      142        4
Fe       9.00000000       0.00000000      12.60000000      55.84500000      143        4
Mn       9.00000000       1.80000000      10.80000000      54.93804400      144        5
Cr       7.20000000       3.60000000       0.00000000      51.99610000      145        3
Cr       7.20000000       5.40000000       1.80000000      51.99610000      146        3
Cr       9.00000000       3.60000000       1.80000000      51.99610000      147        3
Cr       9.00000000       5.40000000       0.00000000      51.99610000      148        3
Cr       7.20000000       3.60000000       3.60000000      51.99610000      149        3
Ni       7.20000000       5.40000000       5.40000000      58.69340000      150        2
Cr       9.00000000       3.60000000       5.40000000      51.99610000      151        3
Cr       9.00000000       5.40000000       3.60000000      51.99610000      152        3
Mn       7.20000000       3.60000000       7.20000000      54.93804400      153        5
Co       7.20000000       5.40000000       9.00000000      58.93319400      154        1
Mn       9.00000000       3.60000000       9.00000000      54.93804400      155        5
Fe       9.00000000       5.40000000       7.20000000      55.84500000      156        4
Fe       7.20000000       3.60000000      10.80000000      55.84500000      157        4
Ni       7.20000000       5.40000000      12.60000000      58.69340000      158        2
Co       9.00000000       3.60000000      12.60000000      58.93319400      159        1
Mn       9.00000000       5.40000000      10.80000000      54.93804400      160        5
Co       7.20000000       7.20000000       0.00000000      58.93319400      161        1
Fe       7.20000000       9.00000000       1.80000000      55.84500000      162        4
Co       9.00000000       7.20000000       1.80000000      58.93319400      163        1
Mn       9.00000000       9.00000000       0.00000000      54.93804400      164        5
Cr       7.20000000       7.20000000       3.60000000      51.99610000      165        3
Ni       7.20000000       9.00000000       5.40000000      58.69340000      166        2
Co       9.00000000       7.20000000       5.40000000      58.93319400      167        1
Mn       9.00000000       9.00000000       3.60000000      54.93804400      168        5
Mn       7.20000000       7.20000000       7.20000000      54.93804400      169        5
Fe       7.20000000       9.00000000       9.00000000      55.84500000      170        4
Fe       9.00000000       7.20000000       9.00000000      55.84500000      171        4
Mn       9.00000000       9.00000000       7.20000000      54.93804400      172        5
Mn       7.20000000       7.20000000      10.80000000      54.93804400      173        5
Fe       7.20000000       9.00000000      12.60000000      55.84500000      174        4
Co       9.00000000       7.20000000      12.60000000      58.93319400      175        1
Mn       9.00000000       9.00000000      10.80000000      54.93804400      176        5
Mn       7.20000000      10.80000000       0.00000000      54.93804400      177        5
Co       7.20000000      12.60000000       1.80000000      58.93319400      178        1
Co       9.00000000      10.80000000       1.80000000      58.93319400      179        1
Fe       9.00000000      12.60000000       0.00000000      55.84500000      180        4
Fe       7.20000000      10.80000000       3.60000000      55.84500000      181        4
Mn       7.20000000      12.60000000       5.40000000      54.93804400      182        5
Co       9.00000000      10.80000000       5.40000000      58.93319400      183        1
Mn       9.00000000      12.60000000       3.60000000      54.93804400      184        5
Fe       7.20000000      10.80000000       7.20000000      55.84500000      185        4
Co       7.20000000      12.60000000       9.00000000      58.93319400      186        1
Fe       9.00000000      10.80000000       9.00000000      55.84500000      187        4
Mn       9.00000000      12.60000000       7.20000000      54.93804400      188        5
Co       7.20000000      10.80000000      10.80000000      58.93319400      189        1
Co       7.20000000      12.60000000      12.60000000      58.93319400      190        1
Fe       9.00000000      10.80000000      12.60000000      55.84500000      191        4
Mn       9.00000000      12.60000000      10.80000000      54.93804400      192        5
Co      10.80000000       0.00000000       0.00000000      58.93319400      193        1
Ni      10.80000000       1.80000000       1.80000000      58.69340000      194        2
Cr      12.60000000       0.00000000       1.80000000      51.99610000      195        3
Cr      12.60000000       1.80000000       0.00000000      51.99610000      196        3
Cr      10.80000000       0.00000000       3.60000000      51.99610000      197        3
Cr      10.80000000       1.80000000       5.40000000      51.99610000      198        3
Ni      12.60000000       0.00000000       5.40000000      58.69340000      199        2
Cr      12.60000000       1.80000000       3.60000000      51.99610000      200        3
Co      10.80000000       0.00000000       7.20000000      58.93319400      201        1
Fe      10.80000000       1.80000000       9.00000000      55.84500000      202        4
Mn      12.60000000       0.00000000       9.00000000      54.93804400      203        5
Fe      12.60000000       1.80000000       7.20000000      55.84500000      204        4
Co      10.80000000       0.00000000      10.80000000      58.93319400      205        1
Fe      10.80000000       1.80000000      12.60000000      55.84500000      206        4
Ni      12.60000000       0.00000000      12.60000000      58.69340000      207        2
Mn      12.60000000       1.80000000      10.80000000      54.93804400      208        5
Ni      10.80000000       3.60000000       0.00000000      58.69340000      209        2
Cr      10.80000000       5.40000000       1.80000000      51.99610000      210        3
Cr      12.60000000       3.60000000       1.80000000      51.99610000      211        3
Ni      12.60000000       5.40000000       0.00000000      58.69340000      212        2
Ni      10.80000000       3.60000000       3.60000000      58.69340000      213        2
Cr      10.80000000       5.40000000       5.40000000      51.99610000      214        3
Co      12.60000000       3.60000000       5.40000000      58.93319400      215        1
Ni      12.60000000       5.40000000       3.60000000      58.69340000      216        2
Co      10.80000000       3.60000000       7.20000000      58.93319400      217        1
Co      10.80000000       5.40000000       9.00000000      58.93319400      218        1
Mn      12.60000000       3.60000000       9.00000000      54.93804400      219        5
Fe      12.60000000       5.40000000       7.20000000      55.84500000      220        4
Fe      10.80000000       3.60000000      10.80000000      55.84500000      221        4
Co      10.80000000       5.40000000      12.60000000      58.93319400      222        1
Mn      12.60000000       3.60000000      12.60000000      54.93804400      223        5
Fe      12.60000000       5.40000000      10.80000000      55.84500000      224        4
Mn      10.80000000       7.20000000       0.00000000      54.93804400      225        5
Fe      10.80000000       9.00000000       1.80000000      55.84500000      226        4
Mn      12.60000000       7.20000000       1.80000000      54.93804400      227        5
Fe      12.60000000       9.00000000       0.00000000      55.84500000      228        4
Cr      10.80000000       7.20000000       3.60000000      51.99610000      229        3
Mn      10.80000000       9.00000000       5.40000000      54.93804400      230        5
Co      12.60000000       7.20000000       5.40000000      58.93319400      231        1
Cr      12.60000000       9.00000000       3.60000000      51.99610000      232        3
Fe      10.80000000       7.20000000       7.20000000      55.84500000      233        4
Mn      10.80000000       9.00000000       9.00000000      54.93804400      234        5
Mn      12.60000000       7.20000000       9.00000000      54.93804400      235        5
Co      12.60000000       9.00000000       7.20000000      58.93319400      236        1
Fe      10.80000000       7.20000000      10.80000000      55.84500000      237        4
Fe      10.80000000       9.00000000      12.60000000      55.84500000      238        4
Mn      12.60000000       7.20000000      12.60000000      54.93804400      239        5
Co      12.60000000       9.00000000      10.80000000      58.93319400      240        1
Mn      10.80000000      10.80000000       0.00000000      54.93804400      241        5
Ni      10.80000000      12.60000000       1.80000000      58.69340000      242        2
Ni      12.60000000      10.80000000       1.80000000      58.69340000      243        2
Cr      12.60000000      12.60000000       0.00000000      51.99610000      244        3
Cr      10.80000000      10.80000000       3.60000000      51.99610000      245        3
Co      10.80000000      12.60000000       5.40000000      58.93319400      246        1
Ni      12.60000000      10.80000000       5.40000000      58.69340000      247        2
Cr      12.60000000      12.60000000       3.60000000      51.99610000      248        3
Fe      10.80000000      10.80000000       7.20000000      55.84500000      249        4
Fe      10.80000000      12.60000000       9.00000000      55.84500000      250        4
Ni      12.60000000      10.80000000       9.00000000      58.69340000      251        2
Mn      12.60000000      12.60000000       7.20000000      54.93804400      252        5
Co      10.80000000      10.80000000      10.80000000      58.93319400      253        1
Mn      10.80000000      12.60000000      12.60000000      54.93804400      254        5
Ni      12.60000000      10.80000000      12.60000000      58.69340000      255        2
Cr      12.60000000      12.60000000      10.80000000      51.99610000      256        3
