256
Lattice="14.4 0.0 0.0 0.0 14.4 0.0 0.0 0.0 14.4" Properties=species:S:1:pos:R:3:masses:R:1:id:I:1:type:I:1 comment="(written by ASE)" energy=-1021.93664678621 pbc="T T T"
Cr       0.00000000       0.00000000       0.00000000      51.99610000        1        3
Cr       0.00000000       1.80000000       1.80000000      51.99610000        2        3
Cr       1.80000000       0.00000000       1.80000000      51.99610000        3        3
Cr       1.80000000       1.80000000       0.00000000      51.99610000        4        3
Ni       0.00000000       0.00000000       3.60000000      58.69340000        5        2
Co       0.00000000       1.80000000       5.40000000      58.93319400        6        1
Ni       1.80000000       0.00000000       5.40000000      58.69340000        7        2
Fe       1.80000000       1.80000000       3.60000000      55.84500000        8        4
Mn       0.00000000       0.00000000       7.20000000      54.93804400        9        5
Co       0.00000000       1.80000000       9.00000000      58.93319400       10        1
Mn       1.80000000       0.00000000       9.00000000      54.93804400       11        5
Mn       1.80000000       1.80000000       7.20000000      54.93804400       12        5
Mn       0.00000000       0.00000000      10.80000000      54.93804400       13        5
Co       0.00000000       1.80000000      12.60000000      58.93319400       14        1
Fe       1.80000000       0.00000000      12.60000000      55.84500000       15        4
Mn       1.80000000       1.80000000      10.80000000      54.93804400       16        5
Fe       0.00000000       3.60000000       0.00000000      55.84500000       17        4
Cr       0.00000000       5.40000000       1.80000000      51.99610000       18        3
Cr       1.80000000       3.60000000       1.80000000      51.99610000       19        3
Ni       1.80000000       5.40000000       0.00000000      58.69340000       20        2
Fe       0.00000000       3.60000000       3.60000000      55.84500000       21        4
Fe       0.00000000       5.40000000       5.40000000      55.84500000       22        4
Ni       1.80000000       3.60000000       5.40000000      58.69340000       23        2
Ni       1.80000000       5.40000000       3.60000000      58.69340000       24        2
Ni       0.00000000       3.60000000       7.20000000      58.69340000       25        2
Co       0.00000000       5.40000000       9.00000000      58.93319400       26        1
Co       1.80000000       3.60000000       9.00000000      58.93319400       27        1
Ni       1.80000000       5.40000000       7.20000000      58.69340000       28        2
Ni       0.00000000       3.60000000      10.80000000      58.69340000       29        2
Fe       0.00000000       5.40000000      12.60000000      55.84500000       30        4
Mn       1.80000000       3.60000000      12.60000000      54.93804400       31        5
Mn       1.80000000       5.40000000      10.80000000      54.93804400       32        5
Mn       0.00000000       7.20000000       0.00000000      54.93804400       33        5
Co       0.00000000       9.00000000       1.80000000      58.93319400       34        1
Co       1.80000000       7.20000000       1.80000000      58.93319400       35        1
Ni       1.80000000       9.00000000       0.00000000      58.69340000       36        2
Fe       0.00000000       7.20000000       3.60000000      55.84500000       37        4
Fe       0.00000000       9.00000000       5.40000000      55.84500000       38        4
Fe       1.80000000       7.20000000       5.40000000      55.84500000       39        4
Ni       1.80000000       9.00000000       3.60000000      58.69340000       40        2
Co       0.00000000       7.20000000       7.20000000      58.93319400       41        1
Mn       0.00000000       9.00000000       9.00000000      54.93804400       42        5
Co       1.80000000       7.20000000       9.00000000      58.93319400       43        1
Ni       1.80000000       9.00000000       7.20000000      58.69340000       44        2
Mn       0.00000000       7.20000000      10.80000000      54.93804400       45        5
Co       0.00000000       9.00000000      12.60000000      58.93319400       46        1
Co       1.80000000       7.20000000      12.60000000      58.93319400       47        1
Ni       1.80000000       9.00000000      10.80000000      58.69340000       48        2
Cr       0.00000000      10.80000000       0.00000000      51.99610000       49        3
Fe       0.00000000      12.60000000       1.80000000      55.84500000       50        4
Fe       1.80000000      10.80000000       1.80000000      55.84500000       51        4
Cr       1.80000000      12.60000000       0.00000000      51.99610000       52        3
Ni       0.00000000      10.80000000       3.60000000      58.69340000       53        2
Co       0.00000000      12.60000000       5.40000000      58.93319400       54        1
Co       1.80000000      10.80000000       5.40000000      58.93319400       55        1
Fe       1.80000000      12.60000000       3.60000000      55.84500000       56        4
Mn       0.00000000      10.80000000       7.20000000      54.93804400       57        5
Mn       0.00000000      12.60000000       9.00000000      54.93804400       58        5
Co       1.80000000      10.80000000       9.00000000      58.93319400       59        1
Mn       1.80000000      12.60000000       7.20000000      54.93804400       60        5
Ni       0.00000000      10.80000000      10.80000000      58.69340000       61        2
Fe       0.00000000      12.60000000      12.60000000      55.84500000       62        4
Fe       1.80000000      10.80000000      12.60000000      55.84500000       63        4
Ni       1.80000000      12.60000000      10.80000000      58.69340000       64        2
Cr       3.60000000       0.00000000       0.00000000      51.99610000       65        3
Cr       3.60000000       1.80000000       1.80000000      51.99610000       66        3
Fe       5.40000000       0.00000000       1.80000000      55.84500000       67        4
Cr       5.40000000       1.80000000       0.00000000      51.99610000       68        3
Co       3.60000000       0.00000000       3.60000000      58.93319400       69        1
Co       3.60000000       1.80000000       5.40000000      58.93319400       70        1
Mn       5.40000000       0.00000000       5.40000000      54.93804400       71        5
Ni       5.40000000       1.80000000       3.60000000      58.69340000       72        2
Co       3.60000000       0.00000000       7.20000000      58.93319400       73        1
Mn       3.60000000       1.80000000       9.00000000      54.93804400       74        5
Mn       5.40000000       0.00000000       9.00000000      54.93804400       75        5
Mn       5.40000000       1.80000000       7.20000000      54.93804400       76        5
Co       3.60000000       0.00000000      10.80000000      58.93319400       77        1
Co       3.60000000       1.80000000      12.60000000      58.93319400       78        1
Fe       5.40000000       0.00000000      12.60000000      55.84500000       79        4
Mn       5.40000000       1.80000000      10.80000000      54.93804400       80        5
Fe       3.60000000       3.60000000       0.00000000      55.84500000       81        4
Fe       3.60000000       5.40000000       1.80000000      55.84500000       82        4
Cr       5.40000000       3.60000000       1.80000000      51.99610000       83        3
Ni       5.40000000       5.40000000       0.00000000      58.69340000       84        2
Fe       3.60000000       3.60000000       3.60000000      55.84500000       85        4
Co       3.60000000       5.40000000       5.40000000      58.93319400       86        1
Co       5.40000000       3.60000000       5.40000000      58.93319400       87        1
Cr       5.40000000       5.40000000       3.60000000      51.99610000       88        3
Mn       3.60000000       3.60000000       7.20000000      54.93804400       89        5
Mn       3.60000000       5.40000000       9.00000000      54.93804400       90        5
Mn       5.40000000       3.60000000       9.00000000      54.93804400       91        5
Ni       5.40000000       5.40000000       7.20000000      58.69340000       92        2
Mn       3.60000000       3.60000000      10.80000000      54.93804400       93        5
Mn       3.60000000       5.40000000      12.60000000      54.93804400       94        5
Ni       5.40000000       3.60000000      12.60000000      58.69340000       95        2
Mn       5.40000000       5.40000000      10.80000000      54.93804400       96        5
Co       3.60000000       7.20000000       0.00000000      58.93319400       97        1
Fe       3.60000000       9.00000000       1.80000000      55.84500000       98        4
Fe       5.40000000       7.20000000       1.80000000      55.84500000       99        4
Ni       5.40000000       9.00000000       0.00000000      58.69340000      100        2
Ni       3.60000000       7.20000000       3.60000000      58.69340000      101        2
Fe       3.60000000       9.00000000       5.40000000      55.84500000      102        4
Fe       5.40000000       7.20000000       5.40000000      55.84500000      103        4
Cr       5.40000000       9.00000000       3.60000000      51.99610000      104        3
Co       3.60000000       7.20000000       7.20000000      58.93319400      105        1
Mn       3.60000000       9.00000000       9.00000000      54.93804400      106        5
Mn       5.40000000       7.20000000       9.00000000      54.93804400      107        5
Ni       5.40000000       9.00000000       7.20000000      58.69340000      108        2
Mn       3.60000000       7.20000000      10.80000000      54.93804400      109        5
Ni       3.60000000       9.00000000      12.60000000      58.69340000      110        2
Co       5.40000000       7.20000000      12.60000000      58.93319400      111        1
Mn       5.40000000       9.00000000      10.80000000      54.93804400      112        5
Cr       3.60000000      10.80000000       0.00000000      51.99610000      113        3
Cr       3.60000000      12.60000000       1.80000000      51.99610000      114        3
Fe       5.40000000      10.80000000       1.80000000      55.84500000      115        4
Cr       5.40000000      12.60000000       0.00000000      51.99610000      116        3
Ni       3.60000000      10.80000000       3.60000000      58.69340000      117        2
Mn       3.60000000      12.60000000       5.40000000      54.93804400      118        5
Fe       5.40000000      10.80000000       5.40000000      55.84500000      119        4
Ni       5.40000000      12.60000000       3.60000000      58.69340000      120        2
Co       3.60000000      10.80000000       7.20000000      58.93319400      121        1
Ni       3.60000000      12.60000000       9.00000000      58.69340000      122        2
Co       5.40000000      10.80000000       9.00000000      58.93319400      123        1
Mn       5.40000000      12.60000000       7.20000000      54.93804400      124        5
Fe       3.60000000      10.80000000      10.80000000      55.84500000      125        4
Cr       3.60000000      12.60000000      12.60000000      51.99610000      126        3
Fe       5.40000000      10.80000000      12.60000000      55.84500000      127        4
Ni       5.40000000      12.60000000      10.80000000      58.69340000      128        2
Cr       7.20000000       0.00000000       0.00000000      51.99610000      129        3
Cr       7.20000000       1.80000000       1.80000000      51.99610000      130        3
Cr       9.00000000       0.00000000       1.80000000      51.99610000      131        3
Cr       9.00000000       1.80000000       0.00000000      51.99610000      132        3
Mn       7.20000000       0.00000000       3.60000000      54.93804400      133        5
Mn       7.20000000       1.80000000       5.40000000      54.93804400      134        5
Co       9.00000000       0.00000000       5.40000000      58.93319400      135        1
Cr       9.00000000       1.80000000       3.60000000      51.99610000      136        3
Mn       7.20000000       0.00000000       7.20000000      54.93804400      137        5
Mn       7.20000000       1.80000000       9.00000000      54.93804400      138        5
Mn       9.00000000       0.00000000       9.00000000      54.93804400      139        5
Mn       9.00000000       1.80000000       7.20000000      54.93804400      140        5
Cr       7.20000000       0.00000000      10.80000000      51.99610000      141        3
Fe       7.20000000       1.80000000      12.60000000      55.84500000      142        4
Cr       9.00000000       0.00000000      12.60000000      51.99610000      143        3
Co       9.00000000       1.80000000      10.80000000      58.93319400      144        1
Fe       7.20000000       3.60000000       0.00000000      55.84500000      145        4
Cr       7.20000000       5.40000000       1.80000000      51.99610000      146        3
Cr       9.00000000       3.60000000       1.80000000      51.99610000      147        3
Fe       9.00000000       5.40000000       0.00000000      55.84500000      148        4
Fe       7.20000000       3.60000000       3.60000000      55.84500000      149        4
Fe       7.20000000       5.40000000       5.40000000      55.84500000      150        4
Ni       9.00000000       3.60000000       5.40000000      58.69340000      151        2
Fe       9.00000000       5.40000000       3.60000000      55.84500000      152        4
Co       7.20000000       3.60000000       7.20000000      58.93319400      153        1
Mn       7.20000000       5.40000000       9.00000000      54.93804400      154        5
Ni       9.00000000       3.60000000       9.00000000      58.69340000      155        2
Co       9.00000000       5.40000000       7.20000000      58.93319400      156        1
Co       7.20000000       3.60000000      10.80000000      58.93319400      157        1
Mn       7.20000000       5.40000000      12.60000000      54.93804400      158        5
Ni       9.00000000       3.60000000      12.60000000      58.69340000      159        2
Co       9.00000000       5.40000000      10.80000000      58.93319400      160        1
Co       7.20000000       7.20000000       0.00000000      58.93319400      161        1
Fe       7.20000000       9.00000000       1.80000000      55.84500000      162        4
Cr       9.00000000       7.20000000       1.80000000      51.99610000      163        3
Ni       9.00000000       9.00000000       0.00000000      58.69340000      164        2
Cr       7.20000000       7.20000000       3.60000000      51.99610000      165        3
Fe       7.20000000       9.00000000       5.40000000      55.84500000      166        4
Cr       9.00000000       7.20000000       5.40000000      51.99610000      167        3
Cr       9.00000000       9.00000000       3.60000000      51.99610000      168        3
Co       7.20000000       7.20000000       7.20000000      58.93319400      169        1
Mn       7.20000000       9.00000000       9.00000000      54.93804400      170        5
Ni       9.00000000       7.20000000       9.00000000      58.69340000      171        2
Mn       9.00000000       9.00000000       7.20000000      54.93804400      172        5
Co       7.20000000       7.20000000      10.80000000      58.93319400      173        1
Mn       7.20000000       9.00000000      12.60000000      54.93804400      174        5
Ni       9.00000000       7.20000000      12.60000000      58.69340000      175        2
Mn       9.00000000       9.00000000      10.80000000      54.93804400      176        5
Cr       7.20000000      10.80000000       0.00000000      51.99610000      177        3
Co       7.20000000      12.60000000       1.80000000      58.93319400      178        1
Fe       9.00000000      10.80000000       1.80000000      55.84500000      179        4
Cr       9.00000000      12.60000000       0.00000000      51.99610000      180        3
Ni       7.20000000      10.80000000       3.60000000      58.69340000      181        2
Mn       7.20000000      12.60000000       5.40000000      54.93804400      182        5
Co       9.00000000      10.80000000       5.40000000      58.93319400      183        1
Mn       9.00000000      12.60000000       3.60000000      54.93804400      184        5
Co       7.20000000      10.80000000       7.20000000      58.93319400      185        1
Mn       7.20000000      12.60000000       9.00000000      54.93804400      186        5
Mn       9.00000000      10.80000000       9.00000000      54.93804400      187        5
Mn       9.00000000      12.60000000       7.20000000      54.93804400      188        5
Co       7.20000000      10.80000000      10.80000000      58.93319400      189        1
Fe       7.20000000      12.60000000      12.60000000      55.84500000      190        4
Co       9.00000000      10.80000000      12.60000000      58.93319400      191        1
Ni       9.00000000      12.60000000      10.80000000      58.69340000      192        2
Cr      10.80000000       0.00000000       0.00000000      51.99610000      193        3
Cr      10.80000000       1.80000000       1.80000000      51.99610000      194        3
Cr      12.60000000       0.00000000       1.80000000      51.99610000      195        3
Cr      12.60000000       1.80000000       0.00000000      51.99610000      196        3
Cr      10.80000000       0.00000000       3.60000000      51.99610000      197        3
Fe      10.80000000       1.80000000       5.40000000      55.84500000      198        4
Co      12.60000000       0.00000000       5.40000000      58.93319400      199        1
Fe      12.60000000       1.80000000       3.60000000      55.84500000      200        4
Ni      10.80000000       0.00000000       7.20000000      58.69340000      201        2
Co      10.80000000       1.80000000       9.00000000      58.93319400      202        1
Mn      12.60000000       0.00000000       9.00000000      54.93804400      203        5
Mn      12.60000000       1.80000000       7.20000000      54.93804400      204        5
Ni      10.80000000       0.00000000      10.80000000      58.69340000      205        2
Fe      10.80000000       1.80000000      12.60000000      55.84500000      206        4
Co      12.60000000       0.00000000      12.60000000      58.93319400      207        1
Ni      12.60000000       1.80000000      10.80000000      58.69340000      208        2
Cr      10.80000000       3.60000000       0.00000000      51.99610000      209        3
Cr      10.80000000       5.40000000       1.80000000      51.99610000      210        3
Cr      12.60000000       3.60000000       1.80000000      51.99610000      211        3
Fe      12.60000000       5.40000000       0.00000000      55.84500000      212        4
Cr      10.80000000       3.60000000       3.60000000      51.99610000      213        3
Fe      10.80000000       5.40000000       5.40000000      55.84500000      214        4
Ni      12.60000000       3.60000000       5.40000000      58.69340000      215        2
Fe      12.60000000       5.40000000       3.60000000      55.84500000      216        4
Mn      10.80000000       3.60000000       7.20000000      54.93804400      217        5
Fe      10.80000000       5.40000000       9.00000000      55.84500000      218        4
Co      12.60000000       3.60000000       9.00000000      58.93319400      219        1
Fe      12.60000000       5.40000000       7.20000000      55.84500000      220        4
Fe      10.80000000       3.60000000      10.80000000      55.84500000      221        4
Fe      10.80000000       5.40000000      12.60000000      55.84500000      222        4
Cr      12.60000000       3.60000000      12.60000000      51.99610000      223        3
Mn      12.60000000       5.40000000      10.80000000      54.93804400      224        5
Fe      10.80000000       7.20000000       0.00000000      55.84500000      225        4
Fe      10.80000000       9.00000000       1.80000000      55.84500000      226        4
Ni      12.60000000       7.20000000       1.80000000      58.69340000      227        2
Cr      12.60000000       9.00000000       0.00000000      51.99610000      228        3
Cr      10.80000000       7.20000000       3.60000000      51.99610000      229        3
Mn      10.80000000       9.00000000       5.40000000      54.93804400      230        5
Cr      12.60000000       7.20000000       5.40000000      51.99610000      231        3
Fe      12.60000000       9.00000000       3.60000000      55.84500000      232        4
Ni      10.80000000       7.20000000       7.20000000      58.69340000      233        2
Mn      10.80000000       9.00000000       9.00000000      54.93804400      234        5
Ni      12.60000000       7.20000000       9.00000000      58.69340000      235        2
Co      12.60000000       9.00000000       7.20000000      58.93319400      236        1
Co      10.80000000       7.20000000      10.80000000      58.93319400      237        1
Mn      10.80000000       9.00000000      12.60000000      54.93804400      238        5
Ni      12.60000000       7.20000000      12.60000000      58.69340000      239        2
Co      12.60000000       9.00000000      10.80000000      58.93319400      240        1
Co      10.80000000      10.80000000       0.00000000      58.93319400      241        1
Fe      10.80000000      12.60000000       1.80000000      55.84500000      242        4
Fe      12.60000000      10.80000000       1.80000000      55.84500000      243        4
Cr      12.60000000      12.60000000       0.00000000      51.99610000      244        3
Ni      10.80000000      10.80000000       3.60000000      58.69340000      245        2
Mn      10.80000000      12.60000000       5.40000000      54.93804400      246        5
Ni      12.60000000      10.80000000       5.40000000      58.69340000      247        2
Fe      12.60000000      12.60000000       3.60000000      55.84500000      248        4
Mn      10.80000000      10.80000000       7.20000000      54.93804400      249        5
Co      10.80000000      12.60000000       9.00000000      58.93319400      250        1
Mn      12.60000000      10.80000000       9.00000000      54.93804400      251        5
Mn      12.60000000      12.60000000       7.20000000      54.93804400      252        5
Mn      10.80000000      10.80000000      10.80000000      54.93804400      253        5
Mn      10.80000000      12.60000000      12.60000000      54.93804400      254        5
Ni      12.60000000      10.80000000      12.60000000      58.69340000      255        2
Mn      12.60000000      12.60000000      10.80000000      54.93804400      256        5
