256
Lattice="14.4 0.0 0.0 0.0 14.4 0.0 0.0 0.0 14.4" Properties=species:S:1:pos:R:3:masses:R:1:id:I:1:type:I:1 comment="(written by ASE)" energy=-1018.59460636748 pbc="T T T"
Co       0.00000000       0.00000000       0.00000000      58.93319400        1        1
Co       0.00000000       1.80000000       1.80000000      58.93319400        2        1
Fe       1.80000000       0.00000000       1.80000000      55.84500000        3        4
Ni       1.80000000       1.80000000       0.00000000      58.69340000        4        2
Fe       0.00000000       0.00000000       3.60000000      55.84500000        5        4
Ni       0.00000000       1.80000000       5.40000000      58.69340000        6        2
Fe       1.80000000       0.00000000       5.40000000      55.84500000        7        4
Ni       1.80000000       1.80000000       3.60000000      58.69340000        8        2
Fe       0.00000000       0.00000000       7.20000000      55.84500000        9        4
Co       0.00000000       1.80000000       9.00000000      58.93319400       10        1
Cr       1.80000000       0.00000000       9.00000000      51.99610000       11        3
Ni       1.80000000       1.80000000       7.20000000      58.69340000       12        2
Ni       0.00000000       0.00000000      10.80000000      58.69340000       13        2
Fe       0.00000000       1.80000000      12.60000000      55.84500000       14        4
Cr       1.80000000       0.00000000      12.60000000      51.99610000       15        3
Ni       1.80000000       1.80000000      10.80000000      58.69340000       16        2
Mn       0.00000000       3.60000000       0.00000000      54.93804400       17        5
Co       0.00000000       5.40000000       1.80000000      58.93319400       18        1
Co       1.80000000       3.60000000       1.80000000      58.93319400       19        1
Ni       1.80000000       5.40000000       0.00000000      58.69340000       20        2
Cr       0.00000000       3.60000000       3.60000000      51.99610000       21        3
Cr       0.00000000       5.40000000       5.40000000      51.99610000       22        3
Co       1.80000000       3.60000000       5.40000000      58.93319400       23        1
Cr       1.80000000       5.40000000       3.60000000      51.99610000       24        3
Cr       0.00000000       3.60000000       7.20000000      51.99610000       25        3
Co       0.00000000       5.40000000       9.00000000      58.93319400       26        1
Co       1.80000000       3.60000000       9.00000000      58.93319400       27        1
Ni       1.80000000       5.40000000       7.20000000      58.69340000       28        2
Ni       0.00000000       3.60000000      10.80000000      58.69340000       29        2
Co       0.00000000       5.40000000      12.60000000      58.93319400       30        1
Fe       1.80000000       3.60000000      12.60000000      55.84500000       31        4
Ni       1.80000000       5.40000000      10.80000000      58.69340000       32        2
Cr       0.00000000       7.20000000       0.00000000      51.99610000       33        3
Cr       0.00000000       9.00000000       1.80000000      51.99610000       34        3
Co       1.80000000       7.20000000       1.80000000      58.93319400       35        1
Cr       1.80000000       9.00000000       0.00000000      51.99610000       36        3
Cr       0.00000000       7.20000000       3.60000000      51.99610000       37        3
Cr       0.00000000       9.00000000       5.40000000      51.99610000       38        3
Co       1.80000000       7.20000000       5.40000000      58.93319400       39        1
Ni       1.80000000       9.00000000       3.60000000      58.69340000       40        2
Cr       0.00000000       7.20000000       7.20000000      51.99610000       41        3
Cr       0.00000000       9.00000000       9.00000000      51.99610000       42        3
Co       1.80000000       7.20000000       9.00000000      58.93319400       43        1
Ni       1.80000000       9.00000000       7.20000000      58.69340000       44        2
Cr       0.00000000       7.20000000      10.80000000      51.99610000       45        3
Cr       0.00000000       9.00000000      12.60000000      51.99610000       46        3
Co       1.80000000       7.20000000      12.60000000      58.93319400       47        1
Cr       1.80000000       9.00000000      10.80000000      51.99610000       48        3
Cr       0.00000000      10.80000000       0.00000000      51.99610000       49        3
Ni       0.00000000      12.60000000       1.80000000      58.69340000       50        2
Fe       1.80000000      10.80000000       1.80000000      55.84500000       51        4
Cr       1.80000000      12.60000000       0.00000000      51.99610000       52        3
Co       0.00000000      10.80000000       3.60000000      58.93319400       53        1
Ni       0.00000000      12.60000000       5.40000000      58.69340000       54        2
Co       1.80000000      10.80000000       5.40000000      58.93319400       55        1
Mn       1.80000000      12.60000000       3.60000000      54.93804400       56        5
Cr       0.00000000      10.80000000       7.20000000      51.99610000       57        3
Cr       0.00000000      12.60000000       9.00000000      51.99610000       58        3
Co       1.80000000      10.80000000       9.00000000      58.93319400       59        1
Cr       1.80000000      12.60000000       7.20000000      51.99610000       60        3
Co       0.00000000      10.80000000      10.80000000      58.93319400       61        1
Cr       0.00000000      12.60000000      12.60000000      51.99610000       62        3
Co       1.80000000      10.80000000      12.60000000      58.93319400       63        1
Cr       1.80000000      12.60000000      10.80000000      51.99610000       64        3
Co       3.60000000       0.00000000       0.00000000      58.93319400       65        1
Ni       3.60000000       1.80000000       1.80000000      58.69340000       66        2
Fe       5.40000000       0.00000000       1.80000000      55.84500000       67        4
Mn       5.40000000       1.80000000       0.00000000      54.93804400       68        5
Mn       3.60000000       0.00000000       3.60000000      54.93804400       69        5
Mn       3.60000000       1.80000000       5.40000000      54.93804400       70        5
Fe       5.40000000       0.00000000       5.40000000      55.84500000       71        4
Mn       5.40000000       1.80000000       3.60000000      54.93804400       72        5
Co       3.60000000       0.00000000       7.20000000      58.93319400       73        1
Cr       3.60000000       1.80000000       9.00000000      51.99610000       74        3
Cr       5.40000000       0.00000000       9.00000000      51.99610000       75        3
Cr       5.40000000       1.80000000       7.20000000      51.99610000       76        3
Co       3.60000000       0.00000000      10.80000000      58.93319400       77        1
Ni       3.60000000       1.80000000      12.60000000      58.69340000       78        2
Fe       5.40000000       0.00000000      12.60000000      55.84500000       79        4
Ni       5.40000000       1.80000000      10.80000000      58.69340000       80        2
Fe       3.60000000       3.60000000       0.00000000      55.84500000       81        4
Cr       3.60000000       5.40000000       1.80000000      51.99610000       82        3
Ni       5.40000000       3.60000000       1.80000000      58.69340000       83        2
Mn       5.40000000       5.40000000       0.00000000      54.93804400       84        5
Co       3.60000000       3.60000000       3.60000000      58.93319400       85        1
Cr       3.60000000       5.40000000       5.40000000      51.99610000       86        3
Fe       5.40000000       3.60000000       5.40000000      55.84500000       87        4
Ni       5.40000000       5.40000000       3.60000000      58.69340000       88        2
Co       3.60000000       3.60000000       7.20000000      58.93319400       89        1
Ni       3.60000000       5.40000000       9.00000000      58.69340000       90        2
Ni       5.40000000       3.60000000       9.00000000      58.69340000       91        2
Fe       5.40000000       5.40000000       7.20000000      55.84500000       92        4
Fe       3.60000000       3.60000000      10.80000000      55.84500000       93        4
Ni       3.60000000       5.40000000      12.60000000      58.69340000       94        2
Ni       5.40000000       3.60000000      12.60000000      58.69340000       95        2
Fe       5.40000000       5.40000000      10.80000000      55.84500000       96        4
Fe       3.60000000       7.20000000       0.00000000      55.84500000       97        4
Ni       3.60000000       9.00000000       1.80000000      58.69340000       98        2
Ni       5.40000000       7.20000000       1.80000000      58.69340000       99        2
Mn       5.40000000       9.00000000       0.00000000      54.93804400      100        5
Co       3.60000000       7.20000000       3.60000000      58.93319400      101        1
Mn       3.60000000       9.00000000       5.40000000      54.93804400      102        5
Ni       5.40000000       7.20000000       5.40000000      58.69340000      103        2
Fe       5.40000000       9.00000000       3.60000000      55.84500000      104        4
Fe       3.60000000       7.20000000       7.20000000      55.84500000      105        4
Cr       3.60000000       9.00000000       9.00000000      51.99610000      106        3
Mn       5.40000000       7.20000000       9.00000000      54.93804400      107        5
Mn       5.40000000       9.00000000       7.20000000      54.93804400      108        5
Co       3.60000000       7.20000000      10.80000000      58.93319400      109        1
Mn       3.60000000       9.00000000      12.60000000      54.93804400      110        5
Mn       5.40000000       7.20000000      12.60000000      54.93804400      111        5
Fe       5.40000000       9.00000000      10.80000000      55.84500000      112        4
Ni       3.60000000      10.80000000       0.00000000      58.69340000      113        2
Mn       3.60000000      12.60000000       1.80000000      54.93804400      114        5
Fe       5.40000000      10.80000000       1.80000000      55.84500000      115        4
Mn       5.40000000      12.60000000       0.00000000      54.93804400      116        5
Mn       3.60000000      10.80000000       3.60000000      54.93804400      117        5
Mn       3.60000000      12.60000000       5.40000000      54.93804400      118        5
Fe       5.40000000      10.80000000       5.40000000      55.84500000      119        4
Mn       5.40000000      12.60000000       3.60000000      54.93804400      120        5
Fe       3.60000000      10.80000000       7.20000000      55.84500000      121        4
Cr       3.60000000      12.60000000       9.00000000      51.99610000      122        3
Co       5.40000000      10.80000000       9.00000000      58.93319400      123        1
Mn       5.40000000      12.60000000       7.20000000      54.93804400      124        5
Ni       3.60000000      10.80000000      10.80000000      58.69340000      125        2
Cr       3.60000000      12.60000000      12.60000000      51.99610000      126        3
Fe       5.40000000      10.80000000      12.60000000      55.84500000      127        4
Ni       5.40000000      12.60000000      10.80000000      58.69340000      128        2
Co       7.20000000       0.00000000       0.00000000      58.93319400      129        1
Mn       7.20000000       1.80000000       1.80000000      54.93804400      130        5
Mn       9.00000000       0.00000000       1.80000000      54.93804400      131        5
Fe       9.00000000       1.80000000       0.00000000      55.84500000      132        4
Mn       7.20000000       0.00000000       3.60000000      54.93804400      133        5
Ni       7.20000000       1.80000000       5.40000000      58.69340000      134        2
Fe       9.00000000       0.00000000       5.40000000      55.84500000      135        4
Ni       9.00000000       1.80000000       3.60000000      58.69340000      136        2
Co       7.20000000       0.00000000       7.20000000      58.93319400      137        1
Cr       7.20000000       1.80000000       9.00000000      51.99610000      138        3
Co       9.00000000       0.00000000       9.00000000      58.93319400      139        1
Ni       9.00000000       1.80000000       7.20000000      58.69340000      140        2
Fe       7.20000000       0.00000000      10.80000000      55.84500000      141        4
Mn       7.20000000       1.80000000      12.60000000      54.93804400      142        5
Mn       9.00000000       0.00000000      12.60000000      54.93804400      143        5
Mn       9.00000000       1.80000000      10.80000000      54.93804400      144        5
Fe       7.20000000       3.60000000       0.00000000      55.84500000      145        4
Co       7.20000000       5.40000000       1.80000000      58.93319400      146        1
Ni       9.00000000       3.60000000       1.80000000      58.69340000      147        2
Fe       9.00000000       5.40000000       0.00000000      55.84500000      148        4
Co       7.20000000       3.60000000       3.60000000      58.93319400      149        1
Ni       7.20000000       5.40000000       5.40000000      58.69340000      150        2
Co       9.00000000       3.60000000       5.40000000      58.93319400      151        1
Cr       9.00000000       5.40000000       3.60000000      51.99610000      152        3
Co       7.20000000       3.60000000       7.20000000      58.93319400      153        1
Mn       7.20000000       5.40000000       9.00000000      54.93804400      154        5
Mn       9.00000000       3.60000000       9.00000000      54.93804400      155        5
Co       9.00000000       5.40000000       7.20000000      58.93319400      156        1
Fe       7.20000000       3.60000000      10.80000000      55.84500000      157        4
Mn       7.20000000       5.40000000      12.60000000      54.93804400      158        5
Mn       9.00000000       3.60000000      12.60000000      54.93804400      159        5
Mn       9.00000000       5.40000000      10.80000000      54.93804400      160        5
Fe       7.20000000       7.20000000       0.00000000      55.84500000      161        4
Fe       7.20000000       9.00000000       1.80000000      55.84500000      162        4
Ni       9.00000000       7.20000000       1.80000000      58.69340000      163        2
Mn       9.00000000       9.00000000       0.00000000      54.93804400      164        5
Co       7.20000000       7.20000000       3.60000000      58.93319400      165        1
Co       7.20000000       9.00000000       5.40000000      58.93319400      166        1
Cr       9.00000000       7.20000000       5.40000000      51.99610000      167        3
Cr       9.00000000       9.00000000       3.60000000      51.99610000      168        3
Fe       7.20000000       7.20000000       7.20000000      55.84500000      169        4
Mn       7.20000000       9.00000000       9.00000000      54.93804400      170        5
Mn       9.00000000       7.20000000       9.00000000      54.93804400      171        5
Mn       9.00000000       9.00000000       7.20000000      54.93804400      172        5
Fe       7.20000000       7.20000000      10.80000000      55.84500000      173        4
Mn       7.20000000       9.00000000      12.60000000      54.93804400      174        5
Mn       9.00000000       7.20000000      12.60000000      54.93804400      175        5
Mn       9.00000000       9.00000000      10.80000000      54.93804400      176        5
Mn       7.20000000      10.80000000       0.00000000      54.93804400      177        5
Fe       7.20000000      12.60000000       1.80000000      55.84500000      178        4
Mn       9.00000000      10.80000000       1.80000000      54.93804400      179        5
Fe       9.00000000      12.60000000       0.00000000      55.84500000      180        4
Mn       7.20000000      10.80000000       3.60000000      54.93804400      181        5
Mn       7.20000000      12.60000000       5.40000000      54.93804400      182        5
Fe       9.00000000      10.80000000       5.40000000      55.84500000      183        4
Mn       9.00000000      12.60000000       3.60000000      54.93804400      184        5
Mn       7.20000000      10.80000000       7.20000000      54.93804400      185        5
Mn       7.20000000      12.60000000       9.00000000      54.93804400      186        5
Fe       9.00000000      10.80000000       9.00000000      55.84500000      187        4
Mn       9.00000000      12.60000000       7.20000000      54.93804400      188        5
Mn       7.20000000      10.80000000      10.80000000      54.93804400      189        5
Mn       7.20000000      12.60000000      12.60000000      54.93804400      190        5
Fe       9.00000000      10.80000000      12.60000000      55.84500000      191        4
Fe       9.00000000      12.60000000      10.80000000      55.84500000      192        4
Mn      10.80000000       0.00000000       0.00000000      54.93804400      193        5
Fe      10.80000000       1.80000000       1.80000000      55.84500000      194        4
Mn      12.60000000       0.00000000       1.80000000      54.93804400      195        5
Mn      12.60000000       1.80000000       0.00000000      54.93804400      196        5
Co      10.80000000       0.00000000       3.60000000      58.93319400      197        1
Cr      10.80000000       1.80000000       5.40000000      51.99610000      198        3
Co      12.60000000       0.00000000       5.40000000      58.93319400      199        1
Ni      12.60000000       1.80000000       3.60000000      58.69340000      200        2
Mn      10.80000000       0.00000000       7.20000000      54.93804400      201        5
Fe      10.80000000       1.80000000       9.00000000      55.84500000      202        4
Mn      12.60000000       0.00000000       9.00000000      54.93804400      203        5
Cr      12.60000000       1.80000000       7.20000000      51.99610000      204        3
Mn      10.80000000       0.00000000      10.80000000      54.93804400      205        5
Fe      10.80000000       1.80000000      12.60000000      55.84500000      206        4
Ni      12.60000000       0.00000000      12.60000000      58.69340000      207        2
Fe      12.60000000       1.80000000      10.80000000      55.84500000      208        4
Mn      10.80000000       3.60000000       0.00000000      54.93804400      209        5
Co      10.80000000       5.40000000       1.80000000      58.93319400      210        1
Fe      12.60000000       3.60000000       1.80000000      55.84500000      211        4
Cr      12.60000000       5.40000000       0.00000000      51.99610000      212        3
Cr      10.80000000       3.60000000       3.60000000      51.99610000      213        3
Cr      10.80000000       5.40000000       5.40000000      51.99610000      214        3
Co      12.60000000       3.60000000       5.40000000      58.93319400      215        1
Cr      12.60000000       5.40000000       3.60000000      51.99610000      216        3
Cr      10.80000000       3.60000000       7.20000000      51.99610000      217        3
Co      10.80000000       5.40000000       9.00000000      58.93319400      218        1
Ni      12.60000000       3.60000000       9.00000000      58.69340000      219        2
Cr      12.60000000       5.40000000       7.20000000      51.99610000      220        3
Mn      10.80000000       3.60000000      10.80000000      54.93804400      221        5
Fe      10.80000000       5.40000000      12.60000000      55.84500000      222        4
Mn      12.60000000       3.60000000      12.60000000      54.93804400      223        5
Fe      12.60000000       5.40000000      10.80000000      55.84500000      224        4
Ni      10.80000000       7.20000000       0.00000000      58.69340000      225        2
Co      10.80000000       9.00000000       1.80000000      58.93319400      226        1
Cr      12.60000000       7.20000000       1.80000000      51.99610000      227        3
Co      12.60000000       9.00000000       0.00000000      58.93319400      228        1
Co      10.80000000       7.20000000       3.60000000      58.93319400      229        1
Ni      10.80000000       9.00000000       5.40000000      58.69340000      230        2
Co      12.60000000       7.20000000       5.40000000      58.93319400      231        1
Cr      12.60000000       9.00000000       3.60000000      51.99610000      232        3
Fe      10.80000000       7.20000000       7.20000000      55.84500000      233        4
Co      10.80000000       9.00000000       9.00000000      58.93319400      234        1
Ni      12.60000000       7.20000000       9.00000000      58.69340000      235        2
Co      12.60000000       9.00000000       7.20000000      58.93319400      236        1
Mn      10.80000000       7.20000000      10.80000000      54.93804400      237        5
Fe      10.80000000       9.00000000      12.60000000      55.84500000      238        4
Ni      12.60000000       7.20000000      12.60000000      58.69340000      239        2
Fe      12.60000000       9.00000000      10.80000000      55.84500000      240        4
Mn      10.80000000      10.80000000       0.00000000      54.93804400      241        5
Mn      10.80000000      12.60000000       1.80000000      54.93804400      242        5
Co      12.60000000      10.80000000       1.80000000      58.93319400      243        1
Fe      12.60000000      12.60000000       0.00000000      55.84500000      244        4
Fe      10.80000000      10.80000000       3.60000000      55.84500000      245        4
Ni      10.80000000      12.60000000       5.40000000      58.69340000      246        2
Cr      12.60000000      10.80000000       5.40000000      51.99610000      247        3
Ni      12.60000000      12.60000000       3.60000000      58.69340000      248        2
Cr      10.80000000      10.80000000       7.20000000      51.99610000      249        3
Fe      10.80000000      12.60000000       9.00000000      55.84500000      250        4
Ni      12.60000000      10.80000000       9.00000000      58.69340000      251        2
Co      12.60000000      12.60000000       7.20000000      58.93319400      252        1
Mn      10.80000000      10.80000000      10.80000000      54.93804400      253        5
Mn      10.80000000      12.60000000      12.60000000      54.93804400      254        5
Ni      12.60000000      10.80000000      12.60000000      58.69340000      255        2
Fe      12.60000000      12.60000000      10.80000000      55.84500000      256        4
