256
Lattice="14.4 0.0 0.0 0.0 14.4 0.0 0.0 0.0 14.4" Properties=species:S:1:pos:R:3:masses:R:1:id:I:1:type:I:1 comment="(written by ASE)" energy=-1023.22352315452 pbc="T T T"
Ni       0.00000000       0.00000000       0.00000000      58.69340000        1        2
Fe       0.00000000       1.80000000       1.80000000      55.84500000        2        4
Mn       1.80000000       0.00000000       1.80000000      54.93804400        3        5
Cr       1.80000000       1.80000000       0.00000000      51.99610000        4        3
Ni       0.00000000       0.00000000       3.60000000      58.69340000        5        2
Mn       0.00000000       1.80000000       5.40000000      54.93804400        6        5
Fe       1.80000000       0.00000000       5.40000000      55.84500000        7        4
Mn       1.80000000       1.80000000       3.60000000      54.93804400        8        5
Ni       0.00000000       0.00000000       7.20000000      58.69340000        9        2
Cr       0.00000000       1.80000000       9.00000000      51.99610000       10        3
Co       1.80000000       0.00000000       9.00000000      58.93319400       11        1
Co       1.80000000       1.80000000       7.20000000      58.93319400       12        1
Ni       0.00000000       0.00000000      10.80000000      58.69340000       13        2
Fe       0.00000000       1.80000000      12.60000000      55.84500000       14        4
Fe       1.80000000       0.00000000      12.60000000      55.84500000       15        4
Co       1.80000000       1.80000000      10.80000000      58.93319400       16        1
Fe       0.00000000       3.60000000       0.00000000      55.84500000       17        4
Mn       0.00000000       5.40000000       1.80000000      54.93804400       18        5
Cr       1.80000000       3.60000000       1.80000000      51.99610000       19        3
Ni       1.80000000       5.40000000       0.00000000      58.69340000       20        2
Fe       0.00000000       3.60000000       3.60000000      55.84500000       21        4
Fe       0.00000000       5.40000000       5.40000000      55.84500000       22        4
Co       1.80000000       3.60000000       5.40000000      58.93319400       23        1
Co       1.80000000       5.40000000       3.60000000      58.93319400       24        1
Co       0.00000000       3.60000000       7.20000000      58.93319400       25        1
Co       0.00000000       5.40000000       9.00000000      58.93319400       26        1
Co       1.80000000       3.60000000       9.00000000      58.93319400       27        1
Cr       1.80000000       5.40000000       7.20000000      51.99610000       28        3
Co       0.00000000       3.60000000      10.80000000      58.93319400       29        1
Fe       0.00000000       5.40000000      12.60000000      55.84500000       30        4
Cr       1.80000000       3.60000000      12.60000000      51.99610000       31        3
Cr       1.80000000       5.40000000      10.80000000      51.99610000       32        3
Ni       0.00000000       7.20000000       0.00000000      58.69340000       33        2
Fe       0.00000000       9.00000000       1.80000000      55.84500000       34        4
Co       1.80000000       7.20000000       1.80000000      58.93319400       35        1
Cr       1.80000000       9.00000000       0.00000000      51.99610000       36        3
Cr       0.00000000       7.20000000       3.60000000      51.99610000       37        3
Fe       0.00000000       9.00000000       5.40000000      55.84500000       38        4
Co       1.80000000       7.20000000       5.40000000      58.93319400       39        1
Cr       1.80000000       9.00000000       3.60000000      51.99610000       40        3
Cr       0.00000000       7.20000000       7.20000000      51.99610000       41        3
Cr       0.00000000       9.00000000       9.00000000      51.99610000       42        3
Co       1.80000000       7.20000000       9.00000000      58.93319400       43        1
Cr       1.80000000       9.00000000       7.20000000      51.99610000       44        3
Co       0.00000000       7.20000000      10.80000000      58.93319400       45        1
Mn       0.00000000       9.00000000      12.60000000      54.93804400       46        5
Fe       1.80000000       7.20000000      12.60000000      55.84500000       47        4
Cr       1.80000000       9.00000000      10.80000000      51.99610000       48        3
Ni       0.00000000      10.80000000       0.00000000      58.69340000       49        2
Fe       0.00000000      12.60000000       1.80000000      55.84500000       50        4
Co       1.80000000      10.80000000       1.80000000      58.93319400       51        1
Mn       1.80000000      12.60000000       0.00000000      54.93804400       52        5
Ni       0.00000000      10.80000000       3.60000000      58.69340000       53        2
Mn       0.00000000      12.60000000       5.40000000      54.93804400       54        5
Co       1.80000000      10.80000000       5.40000000      58.93319400       55        1
Cr       1.80000000      12.60000000       3.60000000      51.99610000       56        3
Ni       0.00000000      10.80000000       7.20000000      58.69340000       57        2
Fe       0.00000000      12.60000000       9.00000000      55.84500000       58        4
Co       1.80000000      10.80000000       9.00000000      58.93319400       59        1
Mn       1.80000000      12.60000000       7.20000000      54.93804400       60        5
Fe       0.00000000      10.80000000      10.80000000      55.84500000       61        4
Mn       0.00000000      12.60000000      12.60000000      54.93804400       62        5
Fe       1.80000000      10.80000000      12.60000000      55.84500000       63        4
Cr       1.80000000      12.60000000      10.80000000      51.99610000       64        3
Cr       3.60000000       0.00000000       0.00000000      51.99610000       65        3
Co       3.60000000       1.80000000       1.80000000      58.93319400       66        1
Cr       5.40000000       0.00000000       1.80000000      51.99610000       67        3
Fe       5.40000000       1.80000000       0.00000000      55.84500000       68        4
Co       3.60000000       0.00000000       3.60000000      58.93319400       69        1
Cr       3.60000000       1.80000000       5.40000000      51.99610000       70        3
Ni       5.40000000       0.00000000       5.40000000      58.69340000       71        2
Fe       5.40000000       1.80000000       3.60000000      55.84500000       72        4
Mn       3.60000000       0.00000000       7.20000000      54.93804400       73        5
Cr       3.60000000       1.80000000       9.00000000      51.99610000       74        3
Ni       5.40000000       0.00000000       9.00000000      58.69340000       75        2
Fe       5.40000000       1.80000000       7.20000000      55.84500000       76        4
Cr       3.60000000       0.00000000      10.80000000      51.99610000       77        3
Cr       3.60000000       1.80000000      12.60000000      51.99610000       78        3
Co       5.40000000       0.00000000      12.60000000      58.93319400       79        1
Co       5.40000000       1.80000000      10.80000000      58.93319400       80        1
Fe       3.60000000       3.60000000       0.00000000      55.84500000       81        4
Mn       3.60000000       5.40000000       1.80000000      54.93804400       82        5
Mn       5.40000000       3.60000000       1.80000000      54.93804400       83        5
Ni       5.40000000       5.40000000       0.00000000      58.69340000       84        2
Fe       3.60000000       3.60000000       3.60000000      55.84500000       85        4
Cr       3.60000000       5.40000000       5.40000000      51.99610000       86        3
Mn       5.40000000       3.60000000       5.40000000      54.93804400       87        5
Ni       5.40000000       5.40000000       3.60000000      58.69340000       88        2
Co       3.60000000       3.60000000       7.20000000      58.93319400       89        1
Co       3.60000000       5.40000000       9.00000000      58.93319400       90        1
Cr       5.40000000       3.60000000       9.00000000      51.99610000       91        3
Co       5.40000000       5.40000000       7.20000000      58.93319400       92        1
Co       3.60000000       3.60000000      10.80000000      58.93319400       93        1
Cr       3.60000000       5.40000000      12.60000000      51.99610000       94        3
Cr       5.40000000       3.60000000      12.60000000      51.99610000       95        3
Cr       5.40000000       5.40000000      10.80000000      51.99610000       96        3
Fe       3.60000000       7.20000000       0.00000000      55.84500000       97        4
Cr       3.60000000       9.00000000       1.80000000      51.99610000       98        3
Mn       5.40000000       7.20000000       1.80000000      54.93804400       99        5
Co       5.40000000       9.00000000       0.00000000      58.93319400      100        1
Co       3.60000000       7.20000000       3.60000000      58.93319400      101        1
Cr       3.60000000       9.00000000       5.40000000      51.99610000      102        3
Fe       5.40000000       7.20000000       5.40000000      55.84500000      103        4
Mn       5.40000000       9.00000000       3.60000000      54.93804400      104        5
Co       3.60000000       7.20000000       7.20000000      58.93319400      105        1
Cr       3.60000000       9.00000000       9.00000000      51.99610000      106        3
Cr       5.40000000       7.20000000       9.00000000      51.99610000      107        3
Ni       5.40000000       9.00000000       7.20000000      58.69340000      108        2
Co       3.60000000       7.20000000      10.80000000      58.93319400      109        1
Ni       3.60000000       9.00000000      12.60000000      58.69340000      110        2
Mn       5.40000000       7.20000000      12.60000000      54.93804400      111        5
Cr       5.40000000       9.00000000      10.80000000      51.99610000      112        3
Cr       3.60000000      10.80000000       0.00000000      51.99610000      113        3
Fe       3.60000000      12.60000000       1.80000000      55.84500000      114        4
Co       5.40000000      10.80000000       1.80000000      58.93319400      115        1
Co       5.40000000      12.60000000       0.00000000      58.93319400      116        1
Co       3.60000000      10.80000000       3.60000000      58.93319400      117        1
Cr       3.60000000      12.60000000       5.40000000      51.99610000      118        3
Fe       5.40000000      10.80000000       5.40000000      55.84500000      119        4
Co       5.40000000      12.60000000       3.60000000      58.93319400      120        1
Co       3.60000000      10.80000000       7.20000000      58.93319400      121        1
Cr       3.60000000      12.60000000       9.00000000      51.99610000      122        3
Fe       5.40000000      10.80000000       9.00000000      55.84500000      123        4
Fe       5.40000000      12.60000000       7.20000000      55.84500000      124        4
Co       3.60000000      10.80000000      10.80000000      58.93319400      125        1
Co       3.60000000      12.60000000      12.60000000      58.93319400      126        1
Co       5.40000000      10.80000000      12.60000000      58.93319400      127        1
Mn       5.40000000      12.60000000      10.80000000      54.93804400      128        5
Co       7.20000000       0.00000000       0.00000000      58.93319400      129        1
Ni       7.20000000       1.80000000       1.80000000      58.69340000      130        2
Mn       9.00000000       0.00000000       1.80000000      54.93804400      131        5
Ni       9.00000000       1.80000000       0.00000000      58.69340000      132        2
Mn       7.20000000       0.00000000       3.60000000      54.93804400      133        5
Ni       7.20000000       1.80000000       5.40000000      58.69340000      134        2
Fe       9.00000000       0.00000000       5.40000000      55.84500000      135        4
Mn       9.00000000       1.80000000       3.60000000      54.93804400      136        5
Mn       7.20000000       0.00000000       7.20000000      54.93804400      137        5
Cr       7.20000000       1.80000000       9.00000000      51.99610000      138        3
Fe       9.00000000       0.00000000       9.00000000      55.84500000      139        4
Mn       9.00000000       1.80000000       7.20000000      54.93804400      140        5
Fe       7.20000000       0.00000000      10.80000000      55.84500000      141        4
Cr       7.20000000       1.80000000      12.60000000      51.99610000      142        3
Mn       9.00000000       0.00000000      12.60000000      54.93804400      143        5
Co       9.00000000       1.80000000      10.80000000      58.93319400      144        1
Mn       7.20000000       3.60000000       0.00000000      54.93804400      145        5
Fe       7.20000000       5.40000000       1.80000000      55.84500000      146        4
Mn       9.00000000       3.60000000       1.80000000      54.93804400      147        5
Fe       9.00000000       5.40000000       0.00000000      55.84500000      148        4
Mn       7.20000000       3.60000000       3.60000000      54.93804400      149        5
Co       7.20000000       5.40000000       5.40000000      58.93319400      150        1
Fe       9.00000000       3.60000000       5.40000000      55.84500000      151        4
Mn       9.00000000       5.40000000       3.60000000      54.93804400      152        5
Cr       7.20000000       3.60000000       7.20000000      51.99610000      153        3
Co       7.20000000       5.40000000       9.00000000      58.93319400      154        1
Co       9.00000000       3.60000000       9.00000000      58.93319400      155        1
Fe       9.00000000       5.40000000       7.20000000      55.84500000      156        4
Co       7.20000000       3.60000000      10.80000000      58.93319400      157        1
Fe       7.20000000       5.40000000      12.60000000      55.84500000      158        4
Cr       9.00000000       3.60000000      12.60000000      51.99610000      159        3
Cr       9.00000000       5.40000000      10.80000000      51.99610000      160        3
Ni       7.20000000       7.20000000       0.00000000      58.69340000      161        2
Fe       7.20000000       9.00000000       1.80000000      55.84500000      162        4
Ni       9.00000000       7.20000000       1.80000000      58.69340000      163        2
Mn       9.00000000       9.00000000       0.00000000      54.93804400      164        5
Mn       7.20000000       7.20000000       3.60000000      54.93804400      165        5
Ni       7.20000000       9.00000000       5.40000000      58.69340000      166        2
Ni       9.00000000       7.20000000       5.40000000      58.69340000      167        2
Mn       9.00000000       9.00000000       3.60000000      54.93804400      168        5
Mn       7.20000000       7.20000000       7.20000000      54.93804400      169        5
Fe       7.20000000       9.00000000       9.00000000      55.84500000      170        4
Ni       9.00000000       7.20000000       9.00000000      58.69340000      171        2
Fe       9.00000000       9.00000000       7.20000000      55.84500000      172        4
Ni       7.20000000       7.20000000      10.80000000      58.69340000      173        2
Fe       7.20000000       9.00000000      12.60000000      55.84500000      174        4
Cr       9.00000000       7.20000000      12.60000000      51.99610000      175        3
Mn       9.00000000       9.00000000      10.80000000      54.93804400      176        5
Cr       7.20000000      10.80000000       0.00000000      51.99610000      177        3
Co       7.20000000      12.60000000       1.80000000      58.93319400      178        1
Fe       9.00000000      10.80000000       1.80000000      55.84500000      179        4
Co       9.00000000      12.60000000       0.00000000      58.93319400      180        1
Mn       7.20000000      10.80000000       3.60000000      54.93804400      181        5
Mn       7.20000000      12.60000000       5.40000000      54.93804400      182        5
Fe       9.00000000      10.80000000       5.40000000      55.84500000      183        4
Ni       9.00000000      12.60000000       3.60000000      58.69340000      184        2
Mn       7.20000000      10.80000000       7.20000000      54.93804400      185        5
Mn       7.20000000      12.60000000       9.00000000      54.93804400      186        5
Ni       9.00000000      10.80000000       9.00000000      58.69340000      187        2
Ni       9.00000000      12.60000000       7.20000000      58.69340000      188        2
Co       7.20000000      10.80000000      10.80000000      58.93319400      189        1
Co       7.20000000      12.60000000      12.60000000      58.93319400      190        1
Ni       9.00000000      10.80000000      12.60000000      58.69340000      191        2
Cr       9.00000000      12.60000000      10.80000000      51.99610000      192        3
Ni      10.80000000       0.00000000       0.00000000      58.69340000      193        2
Fe      10.80000000       1.80000000       1.80000000      55.84500000      194        4
Mn      12.60000000       0.00000000       1.80000000      54.93804400      195        5
Mn      12.60000000       1.80000000       0.00000000      54.93804400      196        5
Ni      10.80000000       0.00000000       3.60000000      58.69340000      197        2
Mn      10.80000000       1.80000000       5.40000000      54.93804400      198        5
Fe      12.60000000       0.00000000       5.40000000      55.84500000      199        4
Mn      12.60000000       1.80000000       3.60000000      54.93804400      200        5
Ni      10.80000000       0.00000000       7.20000000      58.69340000      201        2
Cr      10.80000000       1.80000000       9.00000000      51.99610000      202        3
Fe      12.60000000       0.00000000       9.00000000      55.84500000      203        4
Mn      12.60000000       1.80000000       7.20000000      54.93804400      204        5
Ni      10.80000000       0.00000000      10.80000000      58.69340000      205        2
Fe      10.80000000       1.80000000      12.60000000      55.84500000      206        4
Fe      12.60000000       0.00000000      12.60000000      55.84500000      207        4
Mn      12.60000000       1.80000000      10.80000000      54.93804400      208        5
Mn      10.80000000       3.60000000       0.00000000      54.93804400      209        5
Fe      10.80000000       5.40000000       1.80000000      55.84500000      210        4
Ni      12.60000000       3.60000000       1.80000000      58.69340000      211        2
Mn      12.60000000       5.40000000       0.00000000      54.93804400      212        5
Ni      10.80000000       3.60000000       3.60000000      58.69340000      213        2
Mn      10.80000000       5.40000000       5.40000000      54.93804400      214        5
Ni      12.60000000       3.60000000       5.40000000      58.69340000      215        2
Mn      12.60000000       5.40000000       3.60000000      54.93804400      216        5
Cr      10.80000000       3.60000000       7.20000000      51.99610000      217        3
Co      10.80000000       5.40000000       9.00000000      58.93319400      218        1
Co      12.60000000       3.60000000       9.00000000      58.93319400      219        1
Cr      12.60000000       5.40000000       7.20000000      51.99610000      220        3
Cr      10.80000000       3.60000000      10.80000000      51.99610000      221        3
Fe      10.80000000       5.40000000      12.60000000      55.84500000      222        4
Ni      12.60000000       3.60000000      12.60000000      58.69340000      223        2
Cr      12.60000000       5.40000000      10.80000000      51.99610000      224        3
Mn      10.80000000       7.20000000       0.00000000      54.93804400      225        5
Fe      10.80000000       9.00000000       1.80000000      55.84500000      226        4
Ni      12.60000000       7.20000000       1.80000000      58.69340000      227        2
Mn      12.60000000       9.00000000       0.00000000      54.93804400      228        5
Fe      10.80000000       7.20000000       3.60000000      55.84500000      229        4
Mn      10.80000000       9.00000000       5.40000000      54.93804400      230        5
Ni      12.60000000       7.20000000       5.40000000      58.69340000      231        2
Mn      12.60000000       9.00000000       3.60000000      54.93804400      232        5
Mn      10.80000000       7.20000000       7.20000000      54.93804400      233        5
Mn      10.80000000       9.00000000       9.00000000      54.93804400      234        5
Co      12.60000000       7.20000000       9.00000000      58.93319400      235        1
Fe      12.60000000       9.00000000       7.20000000      55.84500000      236        4
Ni      10.80000000       7.20000000      10.80000000      58.69340000      237        2
Fe      10.80000000       9.00000000      12.60000000      55.84500000      238        4
Ni      12.60000000       7.20000000      12.60000000      58.69340000      239        2
Mn      12.60000000       9.00000000      10.80000000      54.93804400      240        5
Ni      10.80000000      10.80000000       0.00000000      58.69340000      241        2
Mn      10.80000000      12.60000000       1.80000000      54.93804400      242        5
Ni      12.60000000      10.80000000       1.80000000      58.69340000      243        2
Mn      12.60000000      12.60000000       0.00000000      54.93804400      244        5
Ni      10.80000000      10.80000000       3.60000000      58.69340000      245        2
Mn      10.80000000      12.60000000       5.40000000      54.93804400      246        5
Ni      12.60000000      10.80000000       5.40000000      58.69340000      247        2
Fe      12.60000000      12.60000000       3.60000000      55.84500000      248        4
Mn      10.80000000      10.80000000       7.20000000      54.93804400      249        5
Mn      10.80000000      12.60000000       9.00000000      54.93804400      250        5
Ni      12.60000000      10.80000000       9.00000000      58.69340000      251        2
Mn      12.60000000      12.60000000       7.20000000      54.93804400      252        5
Fe      10.80000000      10.80000000      10.80000000      55.84500000      253        4
Mn      10.80000000      12.60000000      12.60000000      54.93804400      254        5
Ni      12.60000000      10.80000000      12.60000000      58.69340000      255        2
Mn      12.60000000      12.60000000      10.80000000      54.93804400      256        5
