256
Lattice="14.4 0.0 0.0 0.0 14.4 0.0 0.0 0.0 14.4" Properties=species:S:1:pos:R:3:masses:R:1:id:I:1:type:I:1 comment="(written by ASE)" energy=-1021.10844127103 pbc="T T T"
Fe       0.00000000       0.00000000       0.00000000      55.84500000        1        4
Fe       0.00000000       1.80000000       1.80000000      55.84500000        2        4
Fe       1.80000000       0.00000000       1.80000000      55.84500000        3        4
Ni       1.80000000       1.80000000       0.00000000      58.69340000        4        2
Cr       0.00000000       0.00000000       3.60000000      51.99610000        5        3
Co       0.00000000       1.80000000       5.40000000      58.93319400        6        1
Co       1.80000000       0.00000000       5.40000000      58.93319400        7        1
Cr       1.80000000       1.80000000       3.60000000      51.99610000        8        3
Mn       0.00000000       0.00000000       7.20000000      54.93804400        9        5
Fe       0.00000000       1.80000000       9.00000000      55.84500000       10        4
Mn       1.80000000       0.00000000       9.00000000      54.93804400       11        5
Co       1.80000000       1.80000000       7.20000000      58.93319400       12        1
Ni       0.00000000       0.00000000      10.80000000      58.69340000       13        2
Mn       0.00000000       1.80000000      12.60000000      54.93804400       14        5
Fe       1.80000000       0.00000000      12.60000000      55.84500000       15        4
Fe       1.80000000       1.80000000      10.80000000      55.84500000       16        4
Ni       0.00000000       3.60000000       0.00000000      58.69340000       17        2
Cr       0.00000000       5.40000000       1.80000000      51.99610000       18        3
Cr       1.80000000       3.60000000       1.80000000      51.99610000       19        3
Cr       1.80000000       5.40000000       0.00000000      51.99610000       20        3
Ni       0.00000000       3.60000000       3.60000000      58.69340000       21        2
Cr       0.00000000       5.40000000       5.40000000      51.99610000       22        3
Cr       1.80000000       3.60000000       5.40000000      51.99610000       23        3
Co       1.80000000       5.40000000       3.60000000      58.93319400       24        1
Co       0.00000000       3.60000000       7.20000000      58.93319400       25        1
Co       0.00000000       5.40000000       9.00000000      58.93319400       26        1
Cr       1.80000000       3.60000000       9.00000000      51.99610000       27        3
Co       1.80000000       5.40000000       7.20000000      58.93319400       28        1
Ni       0.00000000       3.60000000      10.80000000      58.69340000       29        2
Cr       0.00000000       5.40000000      12.60000000      51.99610000       30        3
Cr       1.80000000       3.60000000      12.60000000      51.99610000       31        3
Cr       1.80000000       5.40000000      10.80000000      51.99610000       32        3
Ni       0.00000000       7.20000000       0.00000000      58.69340000       33        2
Cr       0.00000000       9.00000000       1.80000000      51.99610000       34        3
Cr       1.80000000       7.20000000       1.80000000      51.99610000       35        3
Cr       1.80000000       9.00000000       0.00000000      51.99610000       36        3
Cr       0.00000000       7.20000000       3.60000000      51.99610000       37        3
Cr       0.00000000       9.00000000       5.40000000      51.99610000       38        3
Cr       1.80000000       7.20000000       5.40000000      51.99610000       39        3
Ni       1.80000000       9.00000000       3.60000000      58.69340000       40        2
Co       0.00000000       7.20000000       7.20000000      58.93319400       41        1
Cr       0.00000000       9.00000000       9.00000000      51.99610000       42        3
Co       1.80000000       7.20000000       9.00000000      58.93319400       43        1
Ni       1.80000000       9.00000000       7.20000000      58.69340000       44        2
Ni       0.00000000       7.20000000      10.80000000      58.69340000       45        2
Ni       0.00000000       9.00000000      12.60000000      58.69340000       46        2
Fe       1.80000000       7.20000000      12.60000000      55.84500000       47        4
Fe       1.80000000       9.00000000      10.80000000      55.84500000       48        4
Ni       0.00000000      10.80000000       0.00000000      58.69340000       49        2
Fe       0.00000000      12.60000000       1.80000000      55.84500000       50        4
Fe       1.80000000      10.80000000       1.80000000      55.84500000       51        4
Ni       1.80000000      12.60000000       0.00000000      58.69340000       52        2
Fe       0.00000000      10.80000000       3.60000000      55.84500000       53        4
Ni       0.00000000      12.60000000       5.40000000      58.69340000       54        2
Fe       1.80000000      10.80000000       5.40000000      55.84500000       55        4
Ni       1.80000000      12.60000000       3.60000000      58.69340000       56        2
Fe       0.00000000      10.80000000       7.20000000      55.84500000       57        4
Fe       0.00000000      12.60000000       9.00000000      55.84500000       58        4
Fe       1.80000000      10.80000000       9.00000000      55.84500000       59        4
Fe       1.80000000      12.60000000       7.20000000      55.84500000       60        4
Fe       0.00000000      10.80000000      10.80000000      55.84500000       61        4
Fe       0.00000000      12.60000000      12.60000000      55.84500000       62        4
Fe       1.80000000      10.80000000      12.60000000      55.84500000       63        4
Ni       1.80000000      12.60000000      10.80000000      58.69340000       64        2
Ni       3.60000000       0.00000000       0.00000000      58.69340000       65        2
Co       3.60000000       1.80000000       1.80000000      58.93319400       66        1
Mn       5.40000000       0.00000000       1.80000000      54.93804400       67        5
Co       5.40000000       1.80000000       0.00000000      58.93319400       68        1
Mn       3.60000000       0.00000000       3.60000000      54.93804400       69        5
Co       3.60000000       1.80000000       5.40000000      58.93319400       70        1
Co       5.40000000       0.00000000       5.40000000      58.93319400       71        1
Mn       5.40000000       1.80000000       3.60000000      54.93804400       72        5
Cr       3.60000000       0.00000000       7.20000000      51.99610000       73        3
Cr       3.60000000       1.80000000       9.00000000      51.99610000       74        3
Fe       5.40000000       0.00000000       9.00000000      55.84500000       75        4
Ni       5.40000000       1.80000000       7.20000000      58.69340000       76        2
Co       3.60000000       0.00000000      10.80000000      58.93319400       77        1
Cr       3.60000000       1.80000000      12.60000000      51.99610000       78        3
Cr       5.40000000       0.00000000      12.60000000      51.99610000       79        3
Ni       5.40000000       1.80000000      10.80000000      58.69340000       80        2
Co       3.60000000       3.60000000       0.00000000      58.93319400       81        1
Cr       3.60000000       5.40000000       1.80000000      51.99610000       82        3
Ni       5.40000000       3.60000000       1.80000000      58.69340000       83        2
Fe       5.40000000       5.40000000       0.00000000      55.84500000       84        4
Cr       3.60000000       3.60000000       3.60000000      51.99610000       85        3
Ni       3.60000000       5.40000000       5.40000000      58.69340000       86        2
Fe       5.40000000       3.60000000       5.40000000      55.84500000       87        4
Fe       5.40000000       5.40000000       3.60000000      55.84500000       88        4
Cr       3.60000000       3.60000000       7.20000000      51.99610000       89        3
Cr       3.60000000       5.40000000       9.00000000      51.99610000       90        3
Fe       5.40000000       3.60000000       9.00000000      55.84500000       91        4
Ni       5.40000000       5.40000000       7.20000000      58.69340000       92        2
Ni       3.60000000       3.60000000      10.80000000      58.69340000       93        2
Cr       3.60000000       5.40000000      12.60000000      51.99610000       94        3
Fe       5.40000000       3.60000000      12.60000000      55.84500000       95        4
Cr       5.40000000       5.40000000      10.80000000      51.99610000       96        3
Fe       3.60000000       7.20000000       0.00000000      55.84500000       97        4
Cr       3.60000000       9.00000000       1.80000000      51.99610000       98        3
Ni       5.40000000       7.20000000       1.80000000      58.69340000       99        2
Fe       5.40000000       9.00000000       0.00000000      55.84500000      100        4
Fe       3.60000000       7.20000000       3.60000000      55.84500000      101        4
Cr       3.60000000       9.00000000       5.40000000      51.99610000      102        3
Fe       5.40000000       7.20000000       5.40000000      55.84500000      103        4
Ni       5.40000000       9.00000000       3.60000000      58.69340000      104        2
Cr       3.60000000       7.20000000       7.20000000      51.99610000      105        3
Mn       3.60000000       9.00000000       9.00000000      54.93804400      106        5
Ni       5.40000000       7.20000000       9.00000000      58.69340000      107        2
Co       5.40000000       9.00000000       7.20000000      58.93319400      108        1
Co       3.60000000       7.20000000      10.80000000      58.93319400      109        1
Ni       3.60000000       9.00000000      12.60000000      58.69340000      110        2
Ni       5.40000000       7.20000000      12.60000000      58.69340000      111        2
Mn       5.40000000       9.00000000      10.80000000      54.93804400      112        5
Cr       3.60000000      10.80000000       0.00000000      51.99610000      113        3
Fe       3.60000000      12.60000000       1.80000000      55.84500000      114        4
Ni       5.40000000      10.80000000       1.80000000      58.69340000      115        2
Fe       5.40000000      12.60000000       0.00000000      55.84500000      116        4
Fe       3.60000000      10.80000000       3.60000000      55.84500000      117        4
Ni       3.60000000      12.60000000       5.40000000      58.69340000      118        2
Co       5.40000000      10.80000000       5.40000000      58.93319400      119        1
Mn       5.40000000      12.60000000       3.60000000      54.93804400      120        5
Mn       3.60000000      10.80000000       7.20000000      54.93804400      121        5
Ni       3.60000000      12.60000000       9.00000000      58.69340000      122        2
Mn       5.40000000      10.80000000       9.00000000      54.93804400      123        5
Co       5.40000000      12.60000000       7.20000000      58.93319400      124        1
Fe       3.60000000      10.80000000      10.80000000      55.84500000      125        4
Cr       3.60000000      12.60000000      12.60000000      51.99610000      126        3
Ni       5.40000000      10.80000000      12.60000000      58.69340000      127        2
Cr       5.40000000      12.60000000      10.80000000      51.99610000      128        3
Co       7.20000000       0.00000000       0.00000000      58.93319400      129        1
Mn       7.20000000       1.80000000       1.80000000      54.93804400      130        5
Mn       9.00000000       0.00000000       1.80000000      54.93804400      131        5
Co       9.00000000       1.80000000       0.00000000      58.93319400      132        1
Mn       7.20000000       0.00000000       3.60000000      54.93804400      133        5
Fe       7.20000000       1.80000000       5.40000000      55.84500000      134        4
Mn       9.00000000       0.00000000       5.40000000      54.93804400      135        5
Mn       9.00000000       1.80000000       3.60000000      54.93804400      136        5
Fe       7.20000000       0.00000000       7.20000000      55.84500000      137        4
Ni       7.20000000       1.80000000       9.00000000      58.69340000      138        2
Fe       9.00000000       0.00000000       9.00000000      55.84500000      139        4
Ni       9.00000000       1.80000000       7.20000000      58.69340000      140        2
Fe       7.20000000       0.00000000      10.80000000      55.84500000      141        4
Mn       7.20000000       1.80000000      12.60000000      54.93804400      142        5
Mn       9.00000000       0.00000000      12.60000000      54.93804400      143        5
Mn       9.00000000       1.80000000      10.80000000      54.93804400      144        5
Mn       7.20000000       3.60000000       0.00000000      54.93804400      145        5
Mn       7.20000000       5.40000000       1.80000000      54.93804400      146        5
Mn       9.00000000       3.60000000       1.80000000      54.93804400      147        5
Co       9.00000000       5.40000000       0.00000000      58.93319400      148        1
Mn       7.20000000       3.60000000       3.60000000      54.93804400      149        5
Ni       7.20000000       5.40000000       5.40000000      58.69340000      150        2
Mn       9.00000000       3.60000000       5.40000000      54.93804400      151        5
Co       9.00000000       5.40000000       3.60000000      58.93319400      152        1
Fe       7.20000000       3.60000000       7.20000000      55.84500000      153        4
Fe       7.20000000       5.40000000       9.00000000      55.84500000      154        4
Fe       9.00000000       3.60000000       9.00000000      55.84500000      155        4
Ni       9.00000000       5.40000000       7.20000000      58.69340000      156        2
Fe       7.20000000       3.60000000      10.80000000      55.84500000      157        4
Mn       7.20000000       5.40000000      12.60000000      54.93804400      158        5
Co       9.00000000       3.60000000      12.60000000      58.93319400      159        1
Mn       9.00000000       5.40000000      10.80000000      54.93804400      160        5
Mn       7.20000000       7.20000000       0.00000000      54.93804400      161        5
Fe       7.20000000       9.00000000       1.80000000      55.84500000      162        4
Co       9.00000000       7.20000000       1.80000000      58.93319400      163        1
Mn       9.00000000       9.00000000       0.00000000      54.93804400      164        5
Mn       7.20000000       7.20000000       3.60000000      54.93804400      165        5
Mn       7.20000000       9.00000000       5.40000000      54.93804400      166        5
Mn       9.00000000       7.20000000       5.40000000      54.93804400      167        5
Co       9.00000000       9.00000000       3.60000000      58.93319400      168        1
Fe       7.20000000       7.20000000       7.20000000      55.84500000      169        4
Co       7.20000000       9.00000000       9.00000000      58.93319400      170        1
Mn       9.00000000       7.20000000       9.00000000      54.93804400      171        5
Mn       9.00000000       9.00000000       7.20000000      54.93804400      172        5
Co       7.20000000       7.20000000      10.80000000      58.93319400      173        1
Mn       7.20000000       9.00000000      12.60000000      54.93804400      174        5
Co       9.00000000       7.20000000      12.60000000      58.93319400      175        1
Mn       9.00000000       9.00000000      10.80000000      54.93804400      176        5
Ni       7.20000000      10.80000000       0.00000000      58.69340000      177        2
Mn       7.20000000      12.60000000       1.80000000      54.93804400      178        5
Fe       9.00000000      10.80000000       1.80000000      55.84500000      179        4
Mn       9.00000000      12.60000000       0.00000000      54.93804400      180        5
Mn       7.20000000      10.80000000       3.60000000      54.93804400      181        5
Mn       7.20000000      12.60000000       5.40000000      54.93804400      182        5
Co       9.00000000      10.80000000       5.40000000      58.93319400      183        1
Mn       9.00000000      12.60000000       3.60000000      54.93804400      184        5
Mn       7.20000000      10.80000000       7.20000000      54.93804400      185        5
Ni       7.20000000      12.60000000       9.00000000      58.69340000      186        2
Mn       9.00000000      10.80000000       9.00000000      54.93804400      187        5
Mn       9.00000000      12.60000000       7.20000000      54.93804400      188        5
Co       7.20000000      10.80000000      10.80000000      58.93319400      189        1
Co       7.20000000      12.60000000      12.60000000      58.93319400      190        1
Mn       9.00000000      10.80000000      12.60000000      54.93804400      191        5
Mn       9.00000000      12.60000000      10.80000000      54.93804400      192        5
Mn      10.80000000       0.00000000       0.00000000      54.93804400      193        5
Co      10.80000000       1.80000000       1.80000000      58.93319400      194        1
Ni      12.60000000       0.00000000       1.80000000      58.69340000      195        2
Fe      12.60000000       1.80000000       0.00000000      55.84500000      196        4
Co      10.80000000       0.00000000       3.60000000      58.93319400      197        1
Mn      10.80000000       1.80000000       5.40000000      54.93804400      198        5
Co      12.60000000       0.00000000       5.40000000      58.93319400      199        1
Cr      12.60000000       1.80000000       3.60000000      51.99610000      200        3
Mn      10.80000000       0.00000000       7.20000000      54.93804400      201        5
Fe      10.80000000       1.80000000       9.00000000      55.84500000      202        4
Ni      12.60000000       0.00000000       9.00000000      58.69340000      203        2
Mn      12.60000000       1.80000000       7.20000000      54.93804400      204        5
Fe      10.80000000       0.00000000      10.80000000      55.84500000      205        4
Mn      10.80000000       1.80000000      12.60000000      54.93804400      206        5
Ni      12.60000000       0.00000000      12.60000000      58.69340000      207        2
Fe      12.60000000       1.80000000      10.80000000      55.84500000      208        4
Co      10.80000000       3.60000000       0.00000000      58.93319400      209        1
Cr      10.80000000       5.40000000       1.80000000      51.99610000      210        3
Cr      12.60000000       3.60000000       1.80000000      51.99610000      211        3
Cr      12.60000000       5.40000000       0.00000000      51.99610000      212        3
Co      10.80000000       3.60000000       3.60000000      58.93319400      213        1
Co      10.80000000       5.40000000       5.40000000      58.93319400      214        1
Co      12.60000000       3.60000000       5.40000000      58.93319400      215        1
Cr      12.60000000       5.40000000       3.60000000      51.99610000      216        3
Mn      10.80000000       3.60000000       7.20000000      54.93804400      217        5
Co      10.80000000       5.40000000       9.00000000      58.93319400      218        1
Mn      12.60000000       3.60000000       9.00000000      54.93804400      219        5
Mn      12.60000000       5.40000000       7.20000000      54.93804400      220        5
Ni      10.80000000       3.60000000      10.80000000      58.69340000      221        2
Cr      10.80000000       5.40000000      12.60000000      51.99610000      222        3
Cr      12.60000000       3.60000000      12.60000000      51.99610000      223        3
Co      12.60000000       5.40000000      10.80000000      58.93319400      224        1
Co      10.80000000       7.20000000       0.00000000      58.93319400      225        1
Cr      10.80000000       9.00000000       1.80000000      51.99610000      226        3
Co      12.60000000       7.20000000       1.80000000      58.93319400      227        1
Fe      12.60000000       9.00000000       0.00000000      55.84500000      228        4
Cr      10.80000000       7.20000000       3.60000000      51.99610000      229        3
Co      10.80000000       9.00000000       5.40000000      58.93319400      230        1
Co      12.60000000       7.20000000       5.40000000      58.93319400      231        1
Cr      12.60000000       9.00000000       3.60000000      51.99610000      232        3
Mn      10.80000000       7.20000000       7.20000000      54.93804400      233        5
Mn      10.80000000       9.00000000       9.00000000      54.93804400      234        5
Mn      12.60000000       7.20000000       9.00000000      54.93804400      235        5
Co      12.60000000       9.00000000       7.20000000      58.93319400      236        1
Co      10.80000000       7.20000000      10.80000000      58.93319400      237        1
Mn      10.80000000       9.00000000      12.60000000      54.93804400      238        5
Cr      12.60000000       7.20000000      12.60000000      51.99610000      239        3
Fe      12.60000000       9.00000000      10.80000000      55.84500000      240        4
Ni      10.80000000      10.80000000       0.00000000      58.69340000      241        2
Co      10.80000000      12.60000000       1.80000000      58.93319400      242        1
Ni      12.60000000      10.80000000       1.80000000      58.69340000      243        2
Fe      12.60000000      12.60000000       0.00000000      55.84500000      244        4
Cr      10.80000000      10.80000000       3.60000000      51.99610000      245        3
Co      10.80000000      12.60000000       5.40000000      58.93319400      246        1
Ni      12.60000000      10.80000000       5.40000000      58.69340000      247        2
Cr      12.60000000      12.60000000       3.60000000      51.99610000      248        3
Mn      10.80000000      10.80000000       7.20000000      54.93804400      249        5
Mn      10.80000000      12.60000000       9.00000000      54.93804400      250        5
Ni      12.60000000      10.80000000       9.00000000      58.69340000      251        2
Mn      12.60000000      12.60000000       7.20000000      54.93804400      252        5
Ni      10.80000000      10.80000000      10.80000000      58.69340000      253        2
Fe      10.80000000      12.60000000      12.60000000      55.84500000      254        4
Fe      12.60000000      10.80000000      12.60000000      55.84500000      255        4
Mn      12.60000000      12.60000000      10.80000000      54.93804400      256        5
