256
Lattice="14.4 0.0 0.0 0.0 14.4 0.0 0.0 0.0 14.4" Properties=species:S:1:pos:R:3:masses:R:1:id:I:1:type:I:1 comment="(written by ASE)" energy=-1022.46813546901 pbc="T T T"
Cr       0.00000000       0.00000000       0.00000000      51.99610000        1        3
Mn       0.00000000       1.80000000       1.80000000      54.93804400        2        5
Cr       1.80000000       0.00000000       1.80000000      51.99610000        3        3
Cr       1.80000000       1.80000000       0.00000000      51.99610000        4        3
Mn       0.00000000       0.00000000       3.60000000      54.93804400        5        5
Fe       0.00000000       1.80000000       5.40000000      55.84500000        6        4
Ni       1.80000000       0.00000000       5.40000000      58.69340000        7        2
Mn       1.80000000       1.80000000       3.60000000      54.93804400        8        5
Co       0.00000000       0.00000000       7.20000000      58.93319400        9        1
Ni       0.00000000       1.80000000       9.00000000      58.69340000       10        2
Ni       1.80000000       0.00000000       9.00000000      58.69340000       11        2
Co       1.80000000       1.80000000       7.20000000      58.93319400       12        1
Co       0.00000000       0.00000000      10.80000000      58.93319400       13        1
Cr       0.00000000       1.80000000      12.60000000      51.99610000       14        3
Cr       1.80000000       0.00000000      12.60000000      51.99610000       15        3
Cr       1.80000000       1.80000000      10.80000000      51.99610000       16        3
Cr       0.00000000       3.60000000       0.00000000      51.99610000       17        3
Cr       0.00000000       5.40000000       1.80000000      51.99610000       18        3
Mn       1.80000000       3.60000000       1.80000000      54.93804400       19        5
Cr       1.80000000       5.40000000       0.00000000      51.99610000       20        3
Fe       0.00000000       3.60000000       3.60000000      55.84500000       21        4
Fe       0.00000000       5.40000000       5.40000000      55.84500000       22        4
Ni       1.80000000       3.60000000       5.40000000      58.69340000       23        2
Co       1.80000000       5.40000000       3.60000000      58.93319400       24        1
Co       0.00000000       3.60000000       7.20000000      58.93319400       25        1
Co       0.00000000       5.40000000       9.00000000      58.93319400       26        1
Ni       1.80000000       3.60000000       9.00000000      58.69340000       27        2
Co       1.80000000       5.40000000       7.20000000      58.93319400       28        1
Ni       0.00000000       3.60000000      10.80000000      58.69340000       29        2
Co       0.00000000       5.40000000      12.60000000      58.93319400       30        1
Cr       1.80000000       3.60000000      12.60000000      51.99610000       31        3
Ni       1.80000000       5.40000000      10.80000000      58.69340000       32        2
Co       0.00000000       7.20000000       0.00000000      58.93319400       33        1
Fe       0.00000000       9.00000000       1.80000000      55.84500000       34        4
Cr       1.80000000       7.20000000       1.80000000      51.99610000       35        3
Co       1.80000000       9.00000000       0.00000000      58.93319400       36        1
Fe       0.00000000       7.20000000       3.60000000      55.84500000       37        4
Mn       0.00000000       9.00000000       5.40000000      54.93804400       38        5
Co       1.80000000       7.20000000       5.40000000      58.93319400       39        1
Mn       1.80000000       9.00000000       3.60000000      54.93804400       40        5
Fe       0.00000000       7.20000000       7.20000000      55.84500000       41        4
Co       0.00000000       9.00000000       9.00000000      58.93319400       42        1
Fe       1.80000000       7.20000000       9.00000000      55.84500000       43        4
Fe       1.80000000       9.00000000       7.20000000      55.84500000       44        4
Fe       0.00000000       7.20000000      10.80000000      55.84500000       45        4
Fe       0.00000000       9.00000000      12.60000000      55.84500000       46        4
Fe       1.80000000       7.20000000      12.60000000      55.84500000       47        4
Fe       1.80000000       9.00000000      10.80000000      55.84500000       48        4
Ni       0.00000000      10.80000000       0.00000000      58.69340000       49        2
Ni       0.00000000      12.60000000       1.80000000      58.69340000       50        2
Ni       1.80000000      10.80000000       1.80000000      58.69340000       51        2
Co       1.80000000      12.60000000       0.00000000      58.93319400       52        1
Mn       0.00000000      10.80000000       3.60000000      54.93804400       53        5
Ni       0.00000000      12.60000000       5.40000000      58.69340000       54        2
Mn       1.80000000      10.80000000       5.40000000      54.93804400       55        5
Ni       1.80000000      12.60000000       3.60000000      58.69340000       56        2
Ni       0.00000000      10.80000000       7.20000000      58.69340000       57        2
Ni       0.00000000      12.60000000       9.00000000      58.69340000       58        2
Co       1.80000000      10.80000000       9.00000000      58.93319400       59        1
Ni       1.80000000      12.60000000       7.20000000      58.69340000       60        2
Fe       0.00000000      10.80000000      10.80000000      55.84500000       61        4
Cr       0.00000000      12.60000000      12.60000000      51.99610000       62        3
Co       1.80000000      10.80000000      12.60000000      58.93319400       63        1
Fe       1.80000000      12.60000000      10.80000000      55.84500000       64        4
Cr       3.60000000       0.00000000       0.00000000      51.99610000       65        3
Cr       3.60000000       1.80000000       1.80000000      51.99610000       66        3
Mn       5.40000000       0.00000000       1.80000000      54.93804400       67        5
Cr       5.40000000       1.80000000       0.00000000      51.99610000       68        3
Ni       3.60000000       0.00000000       3.60000000      58.69340000       69        2
Co       3.60000000       1.80000000       5.40000000      58.93319400       70        1
Ni       5.40000000       0.00000000       5.40000000      58.69340000       71        2
Cr       5.40000000       1.80000000       3.60000000      51.99610000       72        3
Ni       3.60000000       0.00000000       7.20000000      58.69340000       73        2
Co       3.60000000       1.80000000       9.00000000      58.93319400       74        1
Fe       5.40000000       0.00000000       9.00000000      55.84500000       75        4
Ni       5.40000000       1.80000000       7.20000000      58.69340000       76        2
Co       3.60000000       0.00000000      10.80000000      58.93319400       77        1
Cr       3.60000000       1.80000000      12.60000000      51.99610000       78        3
Co       5.40000000       0.00000000      12.60000000      58.93319400       79        1
Co       5.40000000       1.80000000      10.80000000      58.93319400       80        1
Cr       3.60000000       3.60000000       0.00000000      51.99610000       81        3
Cr       3.60000000       5.40000000       1.80000000      51.99610000       82        3
Cr       5.40000000       3.60000000       1.80000000      51.99610000       83        3
Cr       5.40000000       5.40000000       0.00000000      51.99610000       84        3
Cr       3.60000000       3.60000000       3.60000000      51.99610000       85        3
Co       3.60000000       5.40000000       5.40000000      58.93319400       86        1
Cr       5.40000000       3.60000000       5.40000000      51.99610000       87        3
Cr       5.40000000       5.40000000       3.60000000      51.99610000       88        3
Ni       3.60000000       3.60000000       7.20000000      58.69340000       89        2
Fe       3.60000000       5.40000000       9.00000000      55.84500000       90        4
Fe       5.40000000       3.60000000       9.00000000      55.84500000       91        4
Co       5.40000000       5.40000000       7.20000000      58.93319400       92        1
Cr       3.60000000       3.60000000      10.80000000      51.99610000       93        3
Co       3.60000000       5.40000000      12.60000000      58.93319400       94        1
Cr       5.40000000       3.60000000      12.60000000      51.99610000       95        3
Co       5.40000000       5.40000000      10.80000000      58.93319400       96        1
Co       3.60000000       7.20000000       0.00000000      58.93319400       97        1
Ni       3.60000000       9.00000000       1.80000000      58.69340000       98        2
Cr       5.40000000       7.20000000       1.80000000      51.99610000       99        3
Co       5.40000000       9.00000000       0.00000000      58.93319400      100        1
Cr       3.60000000       7.20000000       3.60000000      51.99610000      101        3
Fe       3.60000000       9.00000000       5.40000000      55.84500000      102        4
Cr       5.40000000       7.20000000       5.40000000      51.99610000      103        3
Co       5.40000000       9.00000000       3.60000000      58.93319400      104        1
Fe       3.60000000       7.20000000       7.20000000      55.84500000      105        4
Fe       3.60000000       9.00000000       9.00000000      55.84500000      106        4
Fe       5.40000000       7.20000000       9.00000000      55.84500000      107        4
Co       5.40000000       9.00000000       7.20000000      58.93319400      108        1
Co       3.60000000       7.20000000      10.80000000      58.93319400      109        1
Fe       3.60000000       9.00000000      12.60000000      55.84500000      110        4
Cr       5.40000000       7.20000000      12.60000000      51.99610000      111        3
Mn       5.40000000       9.00000000      10.80000000      54.93804400      112        5
Fe       3.60000000      10.80000000       0.00000000      55.84500000      113        4
Mn       3.60000000      12.60000000       1.80000000      54.93804400      114        5
Fe       5.40000000      10.80000000       1.80000000      55.84500000      115        4
Fe       5.40000000      12.60000000       0.00000000      55.84500000      116        4
Mn       3.60000000      10.80000000       3.60000000      54.93804400      117        5
Co       3.60000000      12.60000000       5.40000000      58.93319400      118        1
Fe       5.40000000      10.80000000       5.40000000      55.84500000      119        4
Mn       5.40000000      12.60000000       3.60000000      54.93804400      120        5
Fe       3.60000000      10.80000000       7.20000000      55.84500000      121        4
Ni       3.60000000      12.60000000       9.00000000      58.69340000      122        2
Fe       5.40000000      10.80000000       9.00000000      55.84500000      123        4
Co       5.40000000      12.60000000       7.20000000      58.93319400      124        1
Co       3.60000000      10.80000000      10.80000000      58.93319400      125        1
Co       3.60000000      12.60000000      12.60000000      58.93319400      126        1
Fe       5.40000000      10.80000000      12.60000000      55.84500000      127        4
Fe       5.40000000      12.60000000      10.80000000      55.84500000      128        4
Co       7.20000000       0.00000000       0.00000000      58.93319400      129        1
Ni       7.20000000       1.80000000       1.80000000      58.69340000      130        2
Ni       9.00000000       0.00000000       1.80000000      58.69340000      131        2
Ni       9.00000000       1.80000000       0.00000000      58.69340000      132        2
Mn       7.20000000       0.00000000       3.60000000      54.93804400      133        5
Ni       7.20000000       1.80000000       5.40000000      58.69340000      134        2
Mn       9.00000000       0.00000000       5.40000000      54.93804400      135        5
Ni       9.00000000       1.80000000       3.60000000      58.69340000      136        2
Mn       7.20000000       0.00000000       7.20000000      54.93804400      137        5
Fe       7.20000000       1.80000000       9.00000000      55.84500000      138        4
Mn       9.00000000       0.00000000       9.00000000      54.93804400      139        5
Fe       9.00000000       1.80000000       7.20000000      55.84500000      140        4
Ni       7.20000000       0.00000000      10.80000000      58.69340000      141        2
Cr       7.20000000       1.80000000      12.60000000      51.99610000      142        3
Ni       9.00000000       0.00000000      12.60000000      58.69340000      143        2
Ni       9.00000000       1.80000000      10.80000000      58.69340000      144        2
Cr       7.20000000       3.60000000       0.00000000      51.99610000      145        3
Cr       7.20000000       5.40000000       1.80000000      51.99610000      146        3
Co       9.00000000       3.60000000       1.80000000      58.93319400      147        1
Cr       9.00000000       5.40000000       0.00000000      51.99610000      148        3
Cr       7.20000000       3.60000000       3.60000000      51.99610000      149        3
Cr       7.20000000       5.40000000       5.40000000      51.99610000      150        3
Co       9.00000000       3.60000000       5.40000000      58.93319400      151        1
Cr       9.00000000       5.40000000       3.60000000      51.99610000      152        3
Co       7.20000000       3.60000000       7.20000000      58.93319400      153        1
Fe       7.20000000       5.40000000       9.00000000      55.84500000      154        4
Co       9.00000000       3.60000000       9.00000000      58.93319400      155        1
Fe       9.00000000       5.40000000       7.20000000      55.84500000      156        4
Ni       7.20000000       3.60000000      10.80000000      58.69340000      157        2
Ni       7.20000000       5.40000000      12.60000000      58.69340000      158        2
Cr       9.00000000       3.60000000      12.60000000      51.99610000      159        3
Mn       9.00000000       5.40000000      10.80000000      54.93804400      160        5
Cr       7.20000000       7.20000000       0.00000000      51.99610000      161        3
Fe       7.20000000       9.00000000       1.80000000      55.84500000      162        4
Cr       9.00000000       7.20000000       1.80000000      51.99610000      163        3
Mn       9.00000000       9.00000000       0.00000000      54.93804400      164        5
Cr       7.20000000       7.20000000       3.60000000      51.99610000      165        3
Fe       7.20000000       9.00000000       5.40000000      55.84500000      166        4
Co       9.00000000       7.20000000       5.40000000      58.93319400      167        1
Mn       9.00000000       9.00000000       3.60000000      54.93804400      168        5
Co       7.20000000       7.20000000       7.20000000      58.93319400      169        1
Mn       7.20000000       9.00000000       9.00000000      54.93804400      170        5
Mn       9.00000000       7.20000000       9.00000000      54.93804400      171        5
Fe       9.00000000       9.00000000       7.20000000      55.84500000      172        4
Ni       7.20000000       7.20000000      10.80000000      58.69340000      173        2
Mn       7.20000000       9.00000000      12.60000000      54.93804400      174        5
Ni       9.00000000       7.20000000      12.60000000      58.69340000      175        2
Mn       9.00000000       9.00000000      10.80000000      54.93804400      176        5
Mn       7.20000000      10.80000000       0.00000000      54.93804400      177        5
Mn       7.20000000      12.60000000       1.80000000      54.93804400      178        5
Mn       9.00000000      10.80000000       1.80000000      54.93804400      179        5
Mn       9.00000000      12.60000000       0.00000000      54.93804400      180        5
Fe       7.20000000      10.80000000       3.60000000      55.84500000      181        4
Mn       7.20000000      12.60000000       5.40000000      54.93804400      182        5
Mn       9.00000000      10.80000000       5.40000000      54.93804400      183        5
Mn       9.00000000      12.60000000       3.60000000      54.93804400      184        5
Fe       7.20000000      10.80000000       7.20000000      55.84500000      185        4
Fe       7.20000000      12.60000000       9.00000000      55.84500000      186        4
Mn       9.00000000      10.80000000       9.00000000      54.93804400      187        5
Mn       9.00000000      12.60000000       7.20000000      54.93804400      188        5
Mn       7.20000000      10.80000000      10.80000000      54.93804400      189        5
Mn       7.20000000      12.60000000      12.60000000      54.93804400      190        5
Mn       9.00000000      10.80000000      12.60000000      54.93804400      191        5
Mn       9.00000000      12.60000000      10.80000000      54.93804400      192        5
Mn      10.80000000       0.00000000       0.00000000      54.93804400      193        5
Mn      10.80000000       1.80000000       1.80000000      54.93804400      194        5
Mn      12.60000000       0.00000000       1.80000000      54.93804400      195        5
Ni      12.60000000       1.80000000       0.00000000      58.69340000      196        2
Mn      10.80000000       0.00000000       3.60000000      54.93804400      197        5
Fe      10.80000000       1.80000000       5.40000000      55.84500000      198        4
Mn      12.60000000       0.00000000       5.40000000      54.93804400      199        5
Mn      12.60000000       1.80000000       3.60000000      54.93804400      200        5
Mn      10.80000000       0.00000000       7.20000000      54.93804400      201        5
Co      10.80000000       1.80000000       9.00000000      58.93319400      202        1
Ni      12.60000000       0.00000000       9.00000000      58.69340000      203        2
Fe      12.60000000       1.80000000       7.20000000      55.84500000      204        4
Ni      10.80000000       0.00000000      10.80000000      58.69340000      205        2
Ni      10.80000000       1.80000000      12.60000000      58.69340000      206        2
Ni      12.60000000       0.00000000      12.60000000      58.69340000      207        2
Co      12.60000000       1.80000000      10.80000000      58.93319400      208        1
Cr      10.80000000       3.60000000       0.00000000      51.99610000      209        3
Cr      10.80000000       5.40000000       1.80000000      51.99610000      210        3
Mn      12.60000000       3.60000000       1.80000000      54.93804400      211        5
Cr      12.60000000       5.40000000       0.00000000      51.99610000      212        3
Fe      10.80000000       3.60000000       3.60000000      55.84500000      213        4
Co      10.80000000       5.40000000       5.40000000      58.93319400      214        1
Mn      12.60000000       3.60000000       5.40000000      54.93804400      215        5
Mn      12.60000000       5.40000000       3.60000000      54.93804400      216        5
Fe      10.80000000       3.60000000       7.20000000      55.84500000      217        4
Fe      10.80000000       5.40000000       9.00000000      55.84500000      218        4
Co      12.60000000       3.60000000       9.00000000      58.93319400      219        1
Fe      12.60000000       5.40000000       7.20000000      55.84500000      220        4
Ni      10.80000000       3.60000000      10.80000000      58.69340000      221        2
Co      10.80000000       5.40000000      12.60000000      58.93319400      222        1
Cr      12.60000000       3.60000000      12.60000000      51.99610000      223        3
Co      12.60000000       5.40000000      10.80000000      58.93319400      224        1
Cr      10.80000000       7.20000000       0.00000000      51.99610000      225        3
Mn      10.80000000       9.00000000       1.80000000      54.93804400      226        5
Cr      12.60000000       7.20000000       1.80000000      51.99610000      227        3
Fe      12.60000000       9.00000000       0.00000000      55.84500000      228        4
Ni      10.80000000       7.20000000       3.60000000      58.69340000      229        2
Mn      10.80000000       9.00000000       5.40000000      54.93804400      230        5
Fe      12.60000000       7.20000000       5.40000000      55.84500000      231        4
Mn      12.60000000       9.00000000       3.60000000      54.93804400      232        5
Fe      10.80000000       7.20000000       7.20000000      55.84500000      233        4
Mn      10.80000000       9.00000000       9.00000000      54.93804400      234        5
Fe      12.60000000       7.20000000       9.00000000      55.84500000      235        4
Mn      12.60000000       9.00000000       7.20000000      54.93804400      236        5
Fe      10.80000000       7.20000000      10.80000000      55.84500000      237        4
Mn      10.80000000       9.00000000      12.60000000      54.93804400      238        5
Fe      12.60000000       7.20000000      12.60000000      55.84500000      239        4
Co      12.60000000       9.00000000      10.80000000      58.93319400      240        1
Fe      10.80000000      10.80000000       0.00000000      55.84500000      241        4
Mn      10.80000000      12.60000000       1.80000000      54.93804400      242        5
Mn      12.60000000      10.80000000       1.80000000      54.93804400      243        5
Ni      12.60000000      12.60000000       0.00000000      58.69340000      244        2
Mn      10.80000000      10.80000000       3.60000000      54.93804400      245        5
Mn      10.80000000      12.60000000       5.40000000      54.93804400      246        5
Mn      12.60000000      10.80000000       5.40000000      54.93804400      247        5
Mn      12.60000000      12.60000000       3.60000000      54.93804400      248        5
Mn      10.80000000      10.80000000       7.20000000      54.93804400      249        5
Ni      10.80000000      12.60000000       9.00000000      58.69340000      250        2
Ni      12.60000000      10.80000000       9.00000000      58.69340000      251        2
Ni      12.60000000      12.60000000       7.20000000      58.69340000      252        2
Ni      10.80000000      10.80000000      10.80000000      58.69340000      253        2
Mn      10.80000000      12.60000000      12.60000000      54.93804400      254        5
Co      12.60000000      10.80000000      12.60000000      58.93319400      255        1
Co      12.60000000      12.60000000      10.80000000      58.93319400      256        1
