256
Lattice="14.4 0.0 0.0 0.0 14.4 0.0 0.0 0.0 14.4" Properties=species:S:1:pos:R:3:masses:R:1:id:I:1:type:I:1 comment="(written by ASE)" energy=-1022.61946357002 pbc="T T T"
Cr       0.00000000       0.00000000       0.00000000      51.99610000        1        3
Mn       0.00000000       1.80000000       1.80000000      54.93804400        2        5
Cr       1.80000000       0.00000000       1.80000000      51.99610000        3        3
Cr       1.80000000       1.80000000       0.00000000      51.99610000        4        3
Cr       0.00000000       0.00000000       3.60000000      51.99610000        5        3
Mn       0.00000000       1.80000000       5.40000000      54.93804400        6        5
Cr       1.80000000       0.00000000       5.40000000      51.99610000        7        3
Mn       1.80000000       1.80000000       3.60000000      54.93804400        8        5
Ni       0.00000000       0.00000000       7.20000000      58.69340000        9        2
Mn       0.00000000       1.80000000       9.00000000      54.93804400       10        5
Ni       1.80000000       0.00000000       9.00000000      58.69340000       11        2
Co       1.80000000       1.80000000       7.20000000      58.93319400       12        1
Cr       0.00000000       0.00000000      10.80000000      51.99610000       13        3
Ni       0.00000000       1.80000000      12.60000000      58.69340000       14        2
Ni       1.80000000       0.00000000      12.60000000      58.69340000       15        2
Ni       1.80000000       1.80000000      10.80000000      58.69340000       16        2
Cr       0.00000000       3.60000000       0.00000000      51.99610000       17        3
Ni       0.00000000       5.40000000       1.80000000      58.69340000       18        2
Cr       1.80000000       3.60000000       1.80000000      51.99610000       19        3
Co       1.80000000       5.40000000       0.00000000      58.93319400       20        1
Cr       0.00000000       3.60000000       3.60000000      51.99610000       21        3
Mn       0.00000000       5.40000000       5.40000000      54.93804400       22        5
Fe       1.80000000       3.60000000       5.40000000      55.84500000       23        4
Ni       1.80000000       5.40000000       3.60000000      58.69340000       24        2
Fe       0.00000000       3.60000000       7.20000000      55.84500000       25        4
Co       0.00000000       5.40000000       9.00000000      58.93319400       26        1
Fe       1.80000000       3.60000000       9.00000000      55.84500000       27        4
Fe       1.80000000       5.40000000       7.20000000      55.84500000       28        4
Fe       0.00000000       3.60000000      10.80000000      55.84500000       29        4
Co       0.00000000       5.40000000      12.60000000      58.93319400       30        1
Ni       1.80000000       3.60000000      12.60000000      58.69340000       31        2
Co       1.80000000       5.40000000      10.80000000      58.93319400       32        1
Fe       0.00000000       7.20000000       0.00000000      55.84500000       33        4
Fe       0.00000000       9.00000000       1.80000000      55.84500000       34        4
Co       1.80000000       7.20000000       1.80000000      58.93319400       35        1
Fe       1.80000000       9.00000000       0.00000000      55.84500000       36        4
Ni       0.00000000       7.20000000       3.60000000      58.69340000       37        2
Ni       0.00000000       9.00000000       5.40000000      58.69340000       38        2
Ni       1.80000000       7.20000000       5.40000000      58.69340000       39        2
Co       1.80000000       9.00000000       3.60000000      58.93319400       40        1
Ni       0.00000000       7.20000000       7.20000000      58.69340000       41        2
Ni       0.00000000       9.00000000       9.00000000      58.69340000       42        2
Co       1.80000000       7.20000000       9.00000000      58.93319400       43        1
Ni       1.80000000       9.00000000       7.20000000      58.69340000       44        2
Co       0.00000000       7.20000000      10.80000000      58.93319400       45        1
Mn       0.00000000       9.00000000      12.60000000      54.93804400       46        5
Fe       1.80000000       7.20000000      12.60000000      55.84500000       47        4
Co       1.80000000       9.00000000      10.80000000      58.93319400       48        1
Mn       0.00000000      10.80000000       0.00000000      54.93804400       49        5
Mn       0.00000000      12.60000000       1.80000000      54.93804400       50        5
Fe       1.80000000      10.80000000       1.80000000      55.84500000       51        4
Mn       1.80000000      12.60000000       0.00000000      54.93804400       52        5
Mn       0.00000000      10.80000000       3.60000000      54.93804400       53        5
Cr       0.00000000      12.60000000       5.40000000      51.99610000       54        3
Cr       1.80000000      10.80000000       5.40000000      51.99610000       55        3
Mn       1.80000000      12.60000000       3.60000000      54.93804400       56        5
Ni       0.00000000      10.80000000       7.20000000      58.69340000       57        2
Ni       0.00000000      12.60000000       9.00000000      58.69340000       58        2
Cr       1.80000000      10.80000000       9.00000000      51.99610000       59        3
Ni       1.80000000      12.60000000       7.20000000      58.69340000       60        2
Ni       0.00000000      10.80000000      10.80000000      58.69340000       61        2
Cr       0.00000000      12.60000000      12.60000000      51.99610000       62        3
Co       1.80000000      10.80000000      12.60000000      58.93319400       63        1
Ni       1.80000000      12.60000000      10.80000000      58.69340000       64        2
Cr       3.60000000       0.00000000       0.00000000      51.99610000       65        3
Ni       3.60000000       1.80000000       1.80000000      58.69340000       66        2
Cr       5.40000000       0.00000000       1.80000000      51.99610000       67        3
Mn       5.40000000       1.80000000       0.00000000      54.93804400       68        5
Cr       3.60000000       0.00000000       3.60000000      51.99610000       69        3
Ni       3.60000000       1.80000000       5.40000000      58.69340000       70        2
Co       5.40000000       0.00000000       5.40000000      58.93319400       71        1
Ni       5.40000000       1.80000000       3.60000000      58.69340000       72        2
Co       3.60000000       0.00000000       7.20000000      58.93319400       73        1
Co       3.60000000       1.80000000       9.00000000      58.93319400       74        1
Co       5.40000000       0.00000000       9.00000000      58.93319400       75        1
Co       5.40000000       1.80000000       7.20000000      58.93319400       76        1
Co       3.60000000       0.00000000      10.80000000      58.93319400       77        1
Ni       3.60000000       1.80000000      12.60000000      58.69340000       78        2
Fe       5.40000000       0.00000000      12.60000000      55.84500000       79        4
Co       5.40000000       1.80000000      10.80000000      58.93319400       80        1
Cr       3.60000000       3.60000000       0.00000000      51.99610000       81        3
Ni       3.60000000       5.40000000       1.80000000      58.69340000       82        2
Cr       5.40000000       3.60000000       1.80000000      51.99610000       83        3
Co       5.40000000       5.40000000       0.00000000      58.93319400       84        1
Cr       3.60000000       3.60000000       3.60000000      51.99610000       85        3
Mn       3.60000000       5.40000000       5.40000000      54.93804400       86        5
Ni       5.40000000       3.60000000       5.40000000      58.69340000       87        2
Cr       5.40000000       5.40000000       3.60000000      51.99610000       88        3
Fe       3.60000000       3.60000000       7.20000000      55.84500000       89        4
Co       3.60000000       5.40000000       9.00000000      58.93319400       90        1
Fe       5.40000000       3.60000000       9.00000000      55.84500000       91        4
Mn       5.40000000       5.40000000       7.20000000      54.93804400       92        5
Co       3.60000000       3.60000000      10.80000000      58.93319400       93        1
Fe       3.60000000       5.40000000      12.60000000      55.84500000       94        4
Fe       5.40000000       3.60000000      12.60000000      55.84500000       95        4
Co       5.40000000       5.40000000      10.80000000      58.93319400       96        1
Co       3.60000000       7.20000000       0.00000000      58.93319400       97        1
Co       3.60000000       9.00000000       1.80000000      58.93319400       98        1
Ni       5.40000000       7.20000000       1.80000000      58.69340000       99        2
Co       5.40000000       9.00000000       0.00000000      58.93319400      100        1
Cr       3.60000000       7.20000000       3.60000000      51.99610000      101        3
Cr       3.60000000       9.00000000       5.40000000      51.99610000      102        3
Cr       5.40000000       7.20000000       5.40000000      51.99610000      103        3
Mn       5.40000000       9.00000000       3.60000000      54.93804400      104        5
Cr       3.60000000       7.20000000       7.20000000      51.99610000      105        3
Ni       3.60000000       9.00000000       9.00000000      58.69340000      106        2
Ni       5.40000000       7.20000000       9.00000000      58.69340000      107        2
Ni       5.40000000       9.00000000       7.20000000      58.69340000      108        2
Co       3.60000000       7.20000000      10.80000000      58.93319400      109        1
Co       3.60000000       9.00000000      12.60000000      58.93319400      110        1
Co       5.40000000       7.20000000      12.60000000      58.93319400      111        1
Ni       5.40000000       9.00000000      10.80000000      58.69340000      112        2
Fe       3.60000000      10.80000000       0.00000000      55.84500000      113        4
Mn       3.60000000      12.60000000       1.80000000      54.93804400      114        5
Fe       5.40000000      10.80000000       1.80000000      55.84500000      115        4
Mn       5.40000000      12.60000000       0.00000000      54.93804400      116        5
Mn       3.60000000      10.80000000       3.60000000      54.93804400      117        5
Ni       3.60000000      12.60000000       5.40000000      58.69340000      118        2
Mn       5.40000000      10.80000000       5.40000000      54.93804400      119        5
Mn       5.40000000      12.60000000       3.60000000      54.93804400      120        5
Ni       3.60000000      10.80000000       7.20000000      58.69340000      121        2
Co       3.60000000      12.60000000       9.00000000      58.93319400      122        1
Ni       5.40000000      10.80000000       9.00000000      58.69340000      123        2
Ni       5.40000000      12.60000000       7.20000000      58.69340000      124        2
Co       3.60000000      10.80000000      10.80000000      58.93319400      125        1
Co       3.60000000      12.60000000      12.60000000      58.93319400      126        1
Co       5.40000000      10.80000000      12.60000000      58.93319400      127        1
Co       5.40000000      12.60000000      10.80000000      58.93319400      128        1
Mn       7.20000000       0.00000000       0.00000000      54.93804400      129        5
Cr       7.20000000       1.80000000       1.80000000      51.99610000      130        3
Mn       9.00000000       0.00000000       1.80000000      54.93804400      131        5
Mn       9.00000000       1.80000000       0.00000000      54.93804400      132        5
Fe       7.20000000       0.00000000       3.60000000      55.84500000      133        4
Co       7.20000000       1.80000000       5.40000000      58.93319400      134        1
Co       9.00000000       0.00000000       5.40000000      58.93319400      135        1
Ni       9.00000000       1.80000000       3.60000000      58.69340000      136        2
Co       7.20000000       0.00000000       7.20000000      58.93319400      137        1
Co       7.20000000       1.80000000       9.00000000      58.93319400      138        1
Fe       9.00000000       0.00000000       9.00000000      55.84500000      139        4
Fe       9.00000000       1.80000000       7.20000000      55.84500000      140        4
Fe       7.20000000       0.00000000      10.80000000      55.84500000      141        4
Fe       7.20000000       1.80000000      12.60000000      55.84500000      142        4
Fe       9.00000000       0.00000000      12.60000000      55.84500000      143        4
Fe       9.00000000       1.80000000      10.80000000      55.84500000      144        4
Mn       7.20000000       3.60000000       0.00000000      54.93804400      145        5
Ni       7.20000000       5.40000000       1.80000000      58.69340000      146        2
Cr       9.00000000       3.60000000       1.80000000      51.99610000      147        3
Ni       9.00000000       5.40000000       0.00000000      58.69340000      148        2
Ni       7.20000000       3.60000000       3.60000000      58.69340000      149        2
Ni       7.20000000       5.40000000       5.40000000      58.69340000      150        2
Mn       9.00000000       3.60000000       5.40000000      54.93804400      151        5
Ni       9.00000000       5.40000000       3.60000000      58.69340000      152        2
Fe       7.20000000       3.60000000       7.20000000      55.84500000      153        4
Co       7.20000000       5.40000000       9.00000000      58.93319400      154        1
Fe       9.00000000       3.60000000       9.00000000      55.84500000      155        4
Mn       9.00000000       5.40000000       7.20000000      54.93804400      156        5
Co       7.20000000       3.60000000      10.80000000      58.93319400      157        1
Fe       7.20000000       5.40000000      12.60000000      55.84500000      158        4
Fe       9.00000000       3.60000000      12.60000000      55.84500000      159        4
Fe       9.00000000       5.40000000      10.80000000      55.84500000      160        4
Ni       7.20000000       7.20000000       0.00000000      58.69340000      161        2
Fe       7.20000000       9.00000000       1.80000000      55.84500000      162        4
Co       9.00000000       7.20000000       1.80000000      58.93319400      163        1
Fe       9.00000000       9.00000000       0.00000000      55.84500000      164        4
Ni       7.20000000       7.20000000       3.60000000      58.69340000      165        2
Cr       7.20000000       9.00000000       5.40000000      51.99610000      166        3
Ni       9.00000000       7.20000000       5.40000000      58.69340000      167        2
Co       9.00000000       9.00000000       3.60000000      58.93319400      168        1
Cr       7.20000000       7.20000000       7.20000000      51.99610000      169        3
Mn       7.20000000       9.00000000       9.00000000      54.93804400      170        5
Mn       9.00000000       7.20000000       9.00000000      54.93804400      171        5
Mn       9.00000000       9.00000000       7.20000000      54.93804400      172        5
Fe       7.20000000       7.20000000      10.80000000      55.84500000      173        4
Ni       7.20000000       9.00000000      12.60000000      58.69340000      174        2
Mn       9.00000000       7.20000000      12.60000000      54.93804400      175        5
Mn       9.00000000       9.00000000      10.80000000      54.93804400      176        5
Mn       7.20000000      10.80000000       0.00000000      54.93804400      177        5
Mn       7.20000000      12.60000000       1.80000000      54.93804400      178        5
Fe       9.00000000      10.80000000       1.80000000      55.84500000      179        4
Fe       9.00000000      12.60000000       0.00000000      55.84500000      180        4
Fe       7.20000000      10.80000000       3.60000000      55.84500000      181        4
Fe       7.20000000      12.60000000       5.40000000      55.84500000      182        4
Mn       9.00000000      10.80000000       5.40000000      54.93804400      183        5
Mn       9.00000000      12.60000000       3.60000000      54.93804400      184        5
Cr       7.20000000      10.80000000       7.20000000      51.99610000      185        3
Co       7.20000000      12.60000000       9.00000000      58.93319400      186        1
Cr       9.00000000      10.80000000       9.00000000      51.99610000      187        3
Cr       9.00000000      12.60000000       7.20000000      51.99610000      188        3
Ni       7.20000000      10.80000000      10.80000000      58.69340000      189        2
Mn       7.20000000      12.60000000      12.60000000      54.93804400      190        5
Cr       9.00000000      10.80000000      12.60000000      51.99610000      191        3
Mn       9.00000000      12.60000000      10.80000000      54.93804400      192        5
Mn      10.80000000       0.00000000       0.00000000      54.93804400      193        5
Cr      10.80000000       1.80000000       1.80000000      51.99610000      194        3
Mn      12.60000000       0.00000000       1.80000000      54.93804400      195        5
Cr      12.60000000       1.80000000       0.00000000      51.99610000      196        3
Fe      10.80000000       0.00000000       3.60000000      55.84500000      197        4
Fe      10.80000000       1.80000000       5.40000000      55.84500000      198        4
Mn      12.60000000       0.00000000       5.40000000      54.93804400      199        5
Mn      12.60000000       1.80000000       3.60000000      54.93804400      200        5
Mn      10.80000000       0.00000000       7.20000000      54.93804400      201        5
Mn      10.80000000       1.80000000       9.00000000      54.93804400      202        5
Cr      12.60000000       0.00000000       9.00000000      51.99610000      203        3
Mn      12.60000000       1.80000000       7.20000000      54.93804400      204        5
Mn      10.80000000       0.00000000      10.80000000      54.93804400      205        5
Fe      10.80000000       1.80000000      12.60000000      55.84500000      206        4
Mn      12.60000000       0.00000000      12.60000000      54.93804400      207        5
Mn      12.60000000       1.80000000      10.80000000      54.93804400      208        5
Mn      10.80000000       3.60000000       0.00000000      54.93804400      209        5
Co      10.80000000       5.40000000       1.80000000      58.93319400      210        1
Cr      12.60000000       3.60000000       1.80000000      51.99610000      211        3
Mn      12.60000000       5.40000000       0.00000000      54.93804400      212        5
Cr      10.80000000       3.60000000       3.60000000      51.99610000      213        3
Fe      10.80000000       5.40000000       5.40000000      55.84500000      214        4
Mn      12.60000000       3.60000000       5.40000000      54.93804400      215        5
Ni      12.60000000       5.40000000       3.60000000      58.69340000      216        2
Fe      10.80000000       3.60000000       7.20000000      55.84500000      217        4
Fe      10.80000000       5.40000000       9.00000000      55.84500000      218        4
Fe      12.60000000       3.60000000       9.00000000      55.84500000      219        4
Co      12.60000000       5.40000000       7.20000000      58.93319400      220        1
Fe      10.80000000       3.60000000      10.80000000      55.84500000      221        4
Mn      10.80000000       5.40000000      12.60000000      54.93804400      222        5
Mn      12.60000000       3.60000000      12.60000000      54.93804400      223        5
Fe      12.60000000       5.40000000      10.80000000      55.84500000      224        4
Fe      10.80000000       7.20000000       0.00000000      55.84500000      225        4
Fe      10.80000000       9.00000000       1.80000000      55.84500000      226        4
Co      12.60000000       7.20000000       1.80000000      58.93319400      227        1
Fe      12.60000000       9.00000000       0.00000000      55.84500000      228        4
Co      10.80000000       7.20000000       3.60000000      58.93319400      229        1
Fe      10.80000000       9.00000000       5.40000000      55.84500000      230        4
Co      12.60000000       7.20000000       5.40000000      58.93319400      231        1
Co      12.60000000       9.00000000       3.60000000      58.93319400      232        1
Fe      10.80000000       7.20000000       7.20000000      55.84500000      233        4
Mn      10.80000000       9.00000000       9.00000000      54.93804400      234        5
Co      12.60000000       7.20000000       9.00000000      58.93319400      235        1
Mn      12.60000000       9.00000000       7.20000000      54.93804400      236        5
Cr      10.80000000       7.20000000      10.80000000      51.99610000      237        3
Mn      10.80000000       9.00000000      12.60000000      54.93804400      238        5
Fe      12.60000000       7.20000000      12.60000000      55.84500000      239        4
Cr      12.60000000       9.00000000      10.80000000      51.99610000      240        3
Mn      10.80000000      10.80000000       0.00000000      54.93804400      241        5
Fe      10.80000000      12.60000000       1.80000000      55.84500000      242        4
Fe      12.60000000      10.80000000       1.80000000      55.84500000      243        4
Mn      12.60000000      12.60000000       0.00000000      54.93804400      244        5
Mn      10.80000000      10.80000000       3.60000000      54.93804400      245        5
Cr      10.80000000      12.60000000       5.40000000      51.99610000      246        3
Cr      12.60000000      10.80000000       5.40000000      51.99610000      247        3
Mn      12.60000000      12.60000000       3.60000000      54.93804400      248        5
Cr      10.80000000      10.80000000       7.20000000      51.99610000      249        3
Mn      10.80000000      12.60000000       9.00000000      54.93804400      250        5
Cr      12.60000000      10.80000000       9.00000000      51.99610000      251        3
Cr      12.60000000      12.60000000       7.20000000      51.99610000      252        3
Cr      10.80000000      10.80000000      10.80000000      51.99610000      253        3
Mn      10.80000000      12.60000000      12.60000000      54.93804400      254        5
Cr      12.60000000      10.80000000      12.60000000      51.99610000      255        3
Cr      12.60000000      12.60000000      10.80000000      51.99610000      256        3
