256
Lattice="14.4 0.0 0.0 0.0 14.4 0.0 0.0 0.0 14.4" Properties=species:S:1:pos:R:3:masses:R:1:id:I:1:type:I:1 comment="(written by ASE)" energy=-1028.09617445364 pbc="T T T"
Ni       0.00000000       0.00000000       0.00000000      58.69340000        1        2
Mn       0.00000000       1.80000000       1.80000000      54.93804400        2        5
Ni       1.80000000       0.00000000       1.80000000      58.69340000        3        2
Ni       1.80000000       1.80000000       0.00000000      58.69340000        4        2
Ni       0.00000000       0.00000000       3.60000000      58.69340000        5        2
Mn       0.00000000       1.80000000       5.40000000      54.93804400        6        5
Cr       1.80000000       0.00000000       5.40000000      51.99610000        7        3
Mn       1.80000000       1.80000000       3.60000000      54.93804400        8        5
Cr       0.00000000       0.00000000       7.20000000      51.99610000        9        3
Cr       0.00000000       1.80000000       9.00000000      51.99610000       10        3
Cr       1.80000000       0.00000000       9.00000000      51.99610000       11        3
Mn       1.80000000       1.80000000       7.20000000      54.93804400       12        5
Ni       0.00000000       0.00000000      10.80000000      58.69340000       13        2
Ni       0.00000000       1.80000000      12.60000000      58.69340000       14        2
Ni       1.80000000       0.00000000      12.60000000      58.69340000       15        2
Mn       1.80000000       1.80000000      10.80000000      54.93804400       16        5
Mn       0.00000000       3.60000000       0.00000000      54.93804400       17        5
Fe       0.00000000       5.40000000       1.80000000      55.84500000       18        4
Cr       1.80000000       3.60000000       1.80000000      51.99610000       19        3
Mn       1.80000000       5.40000000       0.00000000      54.93804400       20        5
Fe       0.00000000       3.60000000       3.60000000      55.84500000       21        4
Fe       0.00000000       5.40000000       5.40000000      55.84500000       22        4
Cr       1.80000000       3.60000000       5.40000000      51.99610000       23        3
Mn       1.80000000       5.40000000       3.60000000      54.93804400       24        5
Fe       0.00000000       3.60000000       7.20000000      55.84500000       25        4
Fe       0.00000000       5.40000000       9.00000000      55.84500000       26        4
Fe       1.80000000       3.60000000       9.00000000      55.84500000       27        4
Co       1.80000000       5.40000000       7.20000000      58.93319400       28        1
Fe       0.00000000       3.60000000      10.80000000      55.84500000       29        4
Fe       0.00000000       5.40000000      12.60000000      55.84500000       30        4
Ni       1.80000000       3.60000000      12.60000000      58.69340000       31        2
Co       1.80000000       5.40000000      10.80000000      58.93319400       32        1
Co       0.00000000       7.20000000       0.00000000      58.93319400       33        1
Co       0.00000000       9.00000000       1.80000000      58.93319400       34        1
Fe       1.80000000       7.20000000       1.80000000      55.84500000       35        4
Co       1.80000000       9.00000000       0.00000000      58.93319400       36        1
Co       0.00000000       7.20000000       3.60000000      58.93319400       37        1
Mn       0.00000000       9.00000000       5.40000000      54.93804400       38        5
Co       1.80000000       7.20000000       5.40000000      58.93319400       39        1
Fe       1.80000000       9.00000000       3.60000000      55.84500000       40        4
Fe       0.00000000       7.20000000       7.20000000      55.84500000       41        4
Fe       0.00000000       9.00000000       9.00000000      55.84500000       42        4
Co       1.80000000       7.20000000       9.00000000      58.93319400       43        1
Co       1.80000000       9.00000000       7.20000000      58.93319400       44        1
Fe       0.00000000       7.20000000      10.80000000      55.84500000       45        4
Fe       0.00000000       9.00000000      12.60000000      55.84500000       46        4
Co       1.80000000       7.20000000      12.60000000      58.93319400       47        1
Co       1.80000000       9.00000000      10.80000000      58.93319400       48        1
Ni       0.00000000      10.80000000       0.00000000      58.69340000       49        2
Mn       0.00000000      12.60000000       1.80000000      54.93804400       50        5
Fe       1.80000000      10.80000000       1.80000000      55.84500000       51        4
Ni       1.80000000      12.60000000       0.00000000      58.69340000       52        2
Cr       0.00000000      10.80000000       3.60000000      51.99610000       53        3
Cr       0.00000000      12.60000000       5.40000000      51.99610000       54        3
Mn       1.80000000      10.80000000       5.40000000      54.93804400       55        5
Cr       1.80000000      12.60000000       3.60000000      51.99610000       56        3
Fe       0.00000000      10.80000000       7.20000000      55.84500000       57        4
Cr       0.00000000      12.60000000       9.00000000      51.99610000       58        3
Mn       1.80000000      10.80000000       9.00000000      54.93804400       59        5
Mn       1.80000000      12.60000000       7.20000000      54.93804400       60        5
Cr       0.00000000      10.80000000      10.80000000      51.99610000       61        3
Ni       0.00000000      12.60000000      12.60000000      58.69340000       62        2
Mn       1.80000000      10.80000000      12.60000000      54.93804400       63        5
Mn       1.80000000      12.60000000      10.80000000      54.93804400       64        5
Ni       3.60000000       0.00000000       0.00000000      58.69340000       65        2
Mn       3.60000000       1.80000000       1.80000000      54.93804400       66        5
Ni       5.40000000       0.00000000       1.80000000      58.69340000       67        2
Ni       5.40000000       1.80000000       0.00000000      58.69340000       68        2
Mn       3.60000000       0.00000000       3.60000000      54.93804400       69        5
Cr       3.60000000       1.80000000       5.40000000      51.99610000       70        3
Mn       5.40000000       0.00000000       5.40000000      54.93804400       71        5
Cr       5.40000000       1.80000000       3.60000000      51.99610000       72        3
Cr       3.60000000       0.00000000       7.20000000      51.99610000       73        3
Mn       3.60000000       1.80000000       9.00000000      54.93804400       74        5
Mn       5.40000000       0.00000000       9.00000000      54.93804400       75        5
Cr       5.40000000       1.80000000       7.20000000      51.99610000       76        3
Mn       3.60000000       0.00000000      10.80000000      54.93804400       77        5
Ni       3.60000000       1.80000000      12.60000000      58.69340000       78        2
Ni       5.40000000       0.00000000      12.60000000      58.69340000       79        2
Ni       5.40000000       1.80000000      10.80000000      58.69340000       80        2
Mn       3.60000000       3.60000000       0.00000000      54.93804400       81        5
Cr       3.60000000       5.40000000       1.80000000      51.99610000       82        3
Fe       5.40000000       3.60000000       1.80000000      55.84500000       83        4
Ni       5.40000000       5.40000000       0.00000000      58.69340000       84        2
Cr       3.60000000       3.60000000       3.60000000      51.99610000       85        3
Co       3.60000000       5.40000000       5.40000000      58.93319400       86        1
Mn       5.40000000       3.60000000       5.40000000      54.93804400       87        5
Cr       5.40000000       5.40000000       3.60000000      51.99610000       88        3
Fe       3.60000000       3.60000000       7.20000000      55.84500000       89        4
Co       3.60000000       5.40000000       9.00000000      58.93319400       90        1
Cr       5.40000000       3.60000000       9.00000000      51.99610000       91        3
Cr       5.40000000       5.40000000       7.20000000      51.99610000       92        3
Ni       3.60000000       3.60000000      10.80000000      58.69340000       93        2
Ni       3.60000000       5.40000000      12.60000000      58.69340000       94        2
Ni       5.40000000       3.60000000      12.60000000      58.69340000       95        2
Mn       5.40000000       5.40000000      10.80000000      54.93804400       96        5
Fe       3.60000000       7.20000000       0.00000000      55.84500000       97        4
Co       3.60000000       9.00000000       1.80000000      58.93319400       98        1
Mn       5.40000000       7.20000000       1.80000000      54.93804400       99        5
Co       5.40000000       9.00000000       0.00000000      58.93319400      100        1
Cr       3.60000000       7.20000000       3.60000000      51.99610000      101        3
Mn       3.60000000       9.00000000       5.40000000      54.93804400      102        5
Mn       5.40000000       7.20000000       5.40000000      54.93804400      103        5
Fe       5.40000000       9.00000000       3.60000000      55.84500000      104        4
Fe       3.60000000       7.20000000       7.20000000      55.84500000      105        4
Fe       3.60000000       9.00000000       9.00000000      55.84500000      106        4
Cr       5.40000000       7.20000000       9.00000000      51.99610000      107        3
Cr       5.40000000       9.00000000       7.20000000      51.99610000      108        3
Fe       3.60000000       7.20000000      10.80000000      55.84500000      109        4
Fe       3.60000000       9.00000000      12.60000000      55.84500000      110        4
Mn       5.40000000       7.20000000      12.60000000      54.93804400      111        5
Mn       5.40000000       9.00000000      10.80000000      54.93804400      112        5
Mn       3.60000000      10.80000000       0.00000000      54.93804400      113        5
Cr       3.60000000      12.60000000       1.80000000      51.99610000      114        3
Co       5.40000000      10.80000000       1.80000000      58.93319400      115        1
Mn       5.40000000      12.60000000       0.00000000      54.93804400      116        5
Co       3.60000000      10.80000000       3.60000000      58.93319400      117        1
Cr       3.60000000      12.60000000       5.40000000      51.99610000      118        3
Co       5.40000000      10.80000000       5.40000000      58.93319400      119        1
Fe       5.40000000      12.60000000       3.60000000      55.84500000      120        4
Cr       3.60000000      10.80000000       7.20000000      51.99610000      121        3
Cr       3.60000000      12.60000000       9.00000000      51.99610000      122        3
Mn       5.40000000      10.80000000       9.00000000      54.93804400      123        5
Cr       5.40000000      12.60000000       7.20000000      51.99610000      124        3
Cr       3.60000000      10.80000000      10.80000000      51.99610000      125        3
Ni       3.60000000      12.60000000      12.60000000      58.69340000      126        2
Cr       5.40000000      10.80000000      12.60000000      51.99610000      127        3
Ni       5.40000000      12.60000000      10.80000000      58.69340000      128        2
Ni       7.20000000       0.00000000       0.00000000      58.69340000      129        2
Fe       7.20000000       1.80000000       1.80000000      55.84500000      130        4
Co       9.00000000       0.00000000       1.80000000      58.93319400      131        1
Fe       9.00000000       1.80000000       0.00000000      55.84500000      132        4
Mn       7.20000000       0.00000000       3.60000000      54.93804400      133        5
Fe       7.20000000       1.80000000       5.40000000      55.84500000      134        4
Co       9.00000000       0.00000000       5.40000000      58.93319400      135        1
Co       9.00000000       1.80000000       3.60000000      58.93319400      136        1
Cr       7.20000000       0.00000000       7.20000000      51.99610000      137        3
Mn       7.20000000       1.80000000       9.00000000      54.93804400      138        5
Fe       9.00000000       0.00000000       9.00000000      55.84500000      139        4
Co       9.00000000       1.80000000       7.20000000      58.93319400      140        1
Ni       7.20000000       0.00000000      10.80000000      58.69340000      141        2
Mn       7.20000000       1.80000000      12.60000000      54.93804400      142        5
Ni       9.00000000       0.00000000      12.60000000      58.69340000      143        2
Ni       9.00000000       1.80000000      10.80000000      58.69340000      144        2
Co       7.20000000       3.60000000       0.00000000      58.93319400      145        1
Fe       7.20000000       5.40000000       1.80000000      55.84500000      146        4
Co       9.00000000       3.60000000       1.80000000      58.93319400      147        1
Fe       9.00000000       5.40000000       0.00000000      55.84500000      148        4
Mn       7.20000000       3.60000000       3.60000000      54.93804400      149        5
Cr       7.20000000       5.40000000       5.40000000      51.99610000      150        3
Co       9.00000000       3.60000000       5.40000000      58.93319400      151        1
Co       9.00000000       5.40000000       3.60000000      58.93319400      152        1
Mn       7.20000000       3.60000000       7.20000000      54.93804400      153        5
Cr       7.20000000       5.40000000       9.00000000      51.99610000      154        3
Fe       9.00000000       3.60000000       9.00000000      55.84500000      155        4
Co       9.00000000       5.40000000       7.20000000      58.93319400      156        1
Fe       7.20000000       3.60000000      10.80000000      55.84500000      157        4
Ni       7.20000000       5.40000000      12.60000000      58.69340000      158        2
Co       9.00000000       3.60000000      12.60000000      58.93319400      159        1
Co       9.00000000       5.40000000      10.80000000      58.93319400      160        1
Ni       7.20000000       7.20000000       0.00000000      58.69340000      161        2
Ni       7.20000000       9.00000000       1.80000000      58.69340000      162        2
Mn       9.00000000       7.20000000       1.80000000      54.93804400      163        5
Cr       9.00000000       9.00000000       0.00000000      51.99610000      164        3
Ni       7.20000000       7.20000000       3.60000000      58.69340000      165        2
Cr       7.20000000       9.00000000       5.40000000      51.99610000      166        3
Mn       9.00000000       7.20000000       5.40000000      54.93804400      167        5
Cr       9.00000000       9.00000000       3.60000000      51.99610000      168        3
Mn       7.20000000       7.20000000       7.20000000      54.93804400      169        5
Cr       7.20000000       9.00000000       9.00000000      51.99610000      170        3
Co       9.00000000       7.20000000       9.00000000      58.93319400      171        1
Co       9.00000000       9.00000000       7.20000000      58.93319400      172        1
Cr       7.20000000       7.20000000      10.80000000      51.99610000      173        3
Ni       7.20000000       9.00000000      12.60000000      58.69340000      174        2
Mn       9.00000000       7.20000000      12.60000000      54.93804400      175        5
Mn       9.00000000       9.00000000      10.80000000      54.93804400      176        5
Ni       7.20000000      10.80000000       0.00000000      58.69340000      177        2
Fe       7.20000000      12.60000000       1.80000000      55.84500000      178        4
Mn       9.00000000      10.80000000       1.80000000      54.93804400      179        5
Fe       9.00000000      12.60000000       0.00000000      55.84500000      180        4
Mn       7.20000000      10.80000000       3.60000000      54.93804400      181        5
Fe       7.20000000      12.60000000       5.40000000      55.84500000      182        4
Mn       9.00000000      10.80000000       5.40000000      54.93804400      183        5
Ni       9.00000000      12.60000000       3.60000000      58.69340000      184        2
Cr       7.20000000      10.80000000       7.20000000      51.99610000      185        3
Mn       7.20000000      12.60000000       9.00000000      54.93804400      186        5
Co       9.00000000      10.80000000       9.00000000      58.93319400      187        1
Mn       9.00000000      12.60000000       7.20000000      54.93804400      188        5
Ni       7.20000000      10.80000000      10.80000000      58.69340000      189        2
Mn       7.20000000      12.60000000      12.60000000      54.93804400      190        5
Mn       9.00000000      10.80000000      12.60000000      54.93804400      191        5
Fe       9.00000000      12.60000000      10.80000000      55.84500000      192        4
Mn      10.80000000       0.00000000       0.00000000      54.93804400      193        5
Co      10.80000000       1.80000000       1.80000000      58.93319400      194        1
Ni      12.60000000       0.00000000       1.80000000      58.69340000      195        2
Ni      12.60000000       1.80000000       0.00000000      58.69340000      196        2
Fe      10.80000000       0.00000000       3.60000000      55.84500000      197        4
Fe      10.80000000       1.80000000       5.40000000      55.84500000      198        4
Cr      12.60000000       0.00000000       5.40000000      51.99610000      199        3
Mn      12.60000000       1.80000000       3.60000000      54.93804400      200        5
Fe      10.80000000       0.00000000       7.20000000      55.84500000      201        4
Co      10.80000000       1.80000000       9.00000000      58.93319400      202        1
Mn      12.60000000       0.00000000       9.00000000      54.93804400      203        5
Cr      12.60000000       1.80000000       7.20000000      51.99610000      204        3
Ni      10.80000000       0.00000000      10.80000000      58.69340000      205        2
Ni      10.80000000       1.80000000      12.60000000      58.69340000      206        2
Ni      12.60000000       0.00000000      12.60000000      58.69340000      207        2
Mn      12.60000000       1.80000000      10.80000000      54.93804400      208        5
Mn      10.80000000       3.60000000       0.00000000      54.93804400      209        5
Fe      10.80000000       5.40000000       1.80000000      55.84500000      210        4
Ni      12.60000000       3.60000000       1.80000000      58.69340000      211        2
Co      12.60000000       5.40000000       0.00000000      58.93319400      212        1
Fe      10.80000000       3.60000000       3.60000000      55.84500000      213        4
Fe      10.80000000       5.40000000       5.40000000      55.84500000      214        4
Co      12.60000000       3.60000000       5.40000000      58.93319400      215        1
Co      12.60000000       5.40000000       3.60000000      58.93319400      216        1
Fe      10.80000000       3.60000000       7.20000000      55.84500000      217        4
Co      10.80000000       5.40000000       9.00000000      58.93319400      218        1
Co      12.60000000       3.60000000       9.00000000      58.93319400      219        1
Co      12.60000000       5.40000000       7.20000000      58.93319400      220        1
Fe      10.80000000       3.60000000      10.80000000      55.84500000      221        4
Fe      10.80000000       5.40000000      12.60000000      55.84500000      222        4
Ni      12.60000000       3.60000000      12.60000000      58.69340000      223        2
Co      12.60000000       5.40000000      10.80000000      58.93319400      224        1
Co      10.80000000       7.20000000       0.00000000      58.93319400      225        1
Cr      10.80000000       9.00000000       1.80000000      51.99610000      226        3
Fe      12.60000000       7.20000000       1.80000000      55.84500000      227        4
Mn      12.60000000       9.00000000       0.00000000      54.93804400      228        5
Co      10.80000000       7.20000000       3.60000000      58.93319400      229        1
Cr      10.80000000       9.00000000       5.40000000      51.99610000      230        3
Co      12.60000000       7.20000000       5.40000000      58.93319400      231        1
Cr      12.60000000       9.00000000       3.60000000      51.99610000      232        3
Fe      10.80000000       7.20000000       7.20000000      55.84500000      233        4
Fe      10.80000000       9.00000000       9.00000000      55.84500000      234        4
Co      12.60000000       7.20000000       9.00000000      58.93319400      235        1
Co      12.60000000       9.00000000       7.20000000      58.93319400      236        1
Fe      10.80000000       7.20000000      10.80000000      55.84500000      237        4
Fe      10.80000000       9.00000000      12.60000000      55.84500000      238        4
Co      12.60000000       7.20000000      12.60000000      58.93319400      239        1
Co      12.60000000       9.00000000      10.80000000      58.93319400      240        1
Mn      10.80000000      10.80000000       0.00000000      54.93804400      241        5
Cr      10.80000000      12.60000000       1.80000000      51.99610000      242        3
Cr      12.60000000      10.80000000       1.80000000      51.99610000      243        3
Mn      12.60000000      12.60000000       0.00000000      54.93804400      244        5
Mn      10.80000000      10.80000000       3.60000000      54.93804400      245        5
Ni      10.80000000      12.60000000       5.40000000      58.69340000      246        2
Cr      12.60000000      10.80000000       5.40000000      51.99610000      247        3
Mn      12.60000000      12.60000000       3.60000000      54.93804400      248        5
Fe      10.80000000      10.80000000       7.20000000      55.84500000      249        4
Ni      10.80000000      12.60000000       9.00000000      58.69340000      250        2
Co      12.60000000      10.80000000       9.00000000      58.93319400      251        1
Mn      12.60000000      12.60000000       7.20000000      54.93804400      252        5
Fe      10.80000000      10.80000000      10.80000000      55.84500000      253        4
Ni      10.80000000      12.60000000      12.60000000      58.69340000      254        2
Ni      12.60000000      10.80000000      12.60000000      58.69340000      255        2
Mn      12.60000000      12.60000000      10.80000000      54.93804400      256        5
