256
Lattice="14.4 0.0 0.0 0.0 14.4 0.0 0.0 0.0 14.4" Properties=species:S:1:pos:R:3:masses:R:1:id:I:1:type:I:1 comment="(written by ASE)" energy=-1017.81130444308 pbc="T T T"
Ni       0.00000000       0.00000000       0.00000000      58.69340000        1        2
Fe       0.00000000       1.80000000       1.80000000      55.84500000        2        4
Mn       1.80000000       0.00000000       1.80000000      54.93804400        3        5
Fe       1.80000000       1.80000000       0.00000000      55.84500000        4        4
Mn       0.00000000       0.00000000       3.60000000      54.93804400        5        5
Mn       0.00000000       1.80000000       5.40000000      54.93804400        6        5
Fe       1.80000000       0.00000000       5.40000000      55.84500000        7        4
Co       1.80000000       1.80000000       3.60000000      58.93319400        8        1
Fe       0.00000000       0.00000000       7.20000000      55.84500000        9        4
Cr       0.00000000       1.80000000       9.00000000      51.99610000       10        3
Co       1.80000000       0.00000000       9.00000000      58.93319400       11        1
Mn       1.80000000       1.80000000       7.20000000      54.93804400       12        5
Ni       0.00000000       0.00000000      10.80000000      58.69340000       13        2
Fe       0.00000000       1.80000000      12.60000000      55.84500000       14        4
Ni       1.80000000       0.00000000      12.60000000      58.69340000       15        2
Cr       1.80000000       1.80000000      10.80000000      51.99610000       16        3
Mn       0.00000000       3.60000000       0.00000000      54.93804400       17        5
Cr       0.00000000       5.40000000       1.80000000      51.99610000       18        3
Ni       1.80000000       3.60000000       1.80000000      58.69340000       19        2
Fe       1.80000000       5.40000000       0.00000000      55.84500000       20        4
Ni       0.00000000       3.60000000       3.60000000      58.69340000       21        2
Cr       0.00000000       5.40000000       5.40000000      51.99610000       22        3
Cr       1.80000000       3.60000000       5.40000000      51.99610000       23        3
Co       1.80000000       5.40000000       3.60000000      58.93319400       24        1
Co       0.00000000       3.60000000       7.20000000      58.93319400       25        1
Cr       0.00000000       5.40000000       9.00000000      51.99610000       26        3
Co       1.80000000       3.60000000       9.00000000      58.93319400       27        1
Co       1.80000000       5.40000000       7.20000000      58.93319400       28        1
Mn       0.00000000       3.60000000      10.80000000      54.93804400       29        5
Mn       0.00000000       5.40000000      12.60000000      54.93804400       30        5
Fe       1.80000000       3.60000000      12.60000000      55.84500000       31        4
Mn       1.80000000       5.40000000      10.80000000      54.93804400       32        5
Mn       0.00000000       7.20000000       0.00000000      54.93804400       33        5
Cr       0.00000000       9.00000000       1.80000000      51.99610000       34        3
Fe       1.80000000       7.20000000       1.80000000      55.84500000       35        4
Co       1.80000000       9.00000000       0.00000000      58.93319400       36        1
Co       0.00000000       7.20000000       3.60000000      58.93319400       37        1
Ni       0.00000000       9.00000000       5.40000000      58.69340000       38        2
Ni       1.80000000       7.20000000       5.40000000      58.69340000       39        2
Cr       1.80000000       9.00000000       3.60000000      51.99610000       40        3
Cr       0.00000000       7.20000000       7.20000000      51.99610000       41        3
Cr       0.00000000       9.00000000       9.00000000      51.99610000       42        3
Co       1.80000000       7.20000000       9.00000000      58.93319400       43        1
Co       1.80000000       9.00000000       7.20000000      58.93319400       44        1
Cr       0.00000000       7.20000000      10.80000000      51.99610000       45        3
Co       0.00000000       9.00000000      12.60000000      58.93319400       46        1
Mn       1.80000000       7.20000000      12.60000000      54.93804400       47        5
Cr       1.80000000       9.00000000      10.80000000      51.99610000       48        3
Ni       0.00000000      10.80000000       0.00000000      58.69340000       49        2
Ni       0.00000000      12.60000000       1.80000000      58.69340000       50        2
Mn       1.80000000      10.80000000       1.80000000      54.93804400       51        5
Ni       1.80000000      12.60000000       0.00000000      58.69340000       52        2
Co       0.00000000      10.80000000       3.60000000      58.93319400       53        1
Mn       0.00000000      12.60000000       5.40000000      54.93804400       54        5
Ni       1.80000000      10.80000000       5.40000000      58.69340000       55        2
Fe       1.80000000      12.60000000       3.60000000      55.84500000       56        4
Ni       0.00000000      10.80000000       7.20000000      58.69340000       57        2
Ni       0.00000000      12.60000000       9.00000000      58.69340000       58        2
Co       1.80000000      10.80000000       9.00000000      58.93319400       59        1
Ni       1.80000000      12.60000000       7.20000000      58.69340000       60        2
Ni       0.00000000      10.80000000      10.80000000      58.69340000       61        2
Ni       0.00000000      12.60000000      12.60000000      58.69340000       62        2
Cr       1.80000000      10.80000000      12.60000000      51.99610000       63        3
Cr       1.80000000      12.60000000      10.80000000      51.99610000       64        3
Mn       3.60000000       0.00000000       0.00000000      54.93804400       65        5
Mn       3.60000000       1.80000000       1.80000000      54.93804400       66        5
Fe       5.40000000       0.00000000       1.80000000      55.84500000       67        4
Fe       5.40000000       1.80000000       0.00000000      55.84500000       68        4
Mn       3.60000000       0.00000000       3.60000000      54.93804400       69        5
Co       3.60000000       1.80000000       5.40000000      58.93319400       70        1
Cr       5.40000000       0.00000000       5.40000000      51.99610000       71        3
Cr       5.40000000       1.80000000       3.60000000      51.99610000       72        3
Co       3.60000000       0.00000000       7.20000000      58.93319400       73        1
Cr       3.60000000       1.80000000       9.00000000      51.99610000       74        3
Cr       5.40000000       0.00000000       9.00000000      51.99610000       75        3
Co       5.40000000       1.80000000       7.20000000      58.93319400       76        1
Co       3.60000000       0.00000000      10.80000000      58.93319400       77        1
Mn       3.60000000       1.80000000      12.60000000      54.93804400       78        5
Fe       5.40000000       0.00000000      12.60000000      55.84500000       79        4
Mn       5.40000000       1.80000000      10.80000000      54.93804400       80        5
Mn       3.60000000       3.60000000       0.00000000      54.93804400       81        5
Cr       3.60000000       5.40000000       1.80000000      51.99610000       82        3
Co       5.40000000       3.60000000       1.80000000      58.93319400       83        1
Mn       5.40000000       5.40000000       0.00000000      54.93804400       84        5
Cr       3.60000000       3.60000000       3.60000000      51.99610000       85        3
Ni       3.60000000       5.40000000       5.40000000      58.69340000       86        2
Cr       5.40000000       3.60000000       5.40000000      51.99610000       87        3
Co       5.40000000       5.40000000       3.60000000      58.93319400       88        1
Cr       3.60000000       3.60000000       7.20000000      51.99610000       89        3
Cr       3.60000000       5.40000000       9.00000000      51.99610000       90        3
Fe       5.40000000       3.60000000       9.00000000      55.84500000       91        4
Co       5.40000000       5.40000000       7.20000000      58.93319400       92        1
Fe       3.60000000       3.60000000      10.80000000      55.84500000       93        4
Fe       3.60000000       5.40000000      12.60000000      55.84500000       94        4
Fe       5.40000000       3.60000000      12.60000000      55.84500000       95        4
Mn       5.40000000       5.40000000      10.80000000      54.93804400       96        5
Mn       3.60000000       7.20000000       0.00000000      54.93804400       97        5
Fe       3.60000000       9.00000000       1.80000000      55.84500000       98        4
Ni       5.40000000       7.20000000       1.80000000      58.69340000       99        2
Fe       5.40000000       9.00000000       0.00000000      55.84500000      100        4
Ni       3.60000000       7.20000000       3.60000000      58.69340000      101        2
Co       3.60000000       9.00000000       5.40000000      58.93319400      102        1
Ni       5.40000000       7.20000000       5.40000000      58.69340000      103        2
Ni       5.40000000       9.00000000       3.60000000      58.69340000      104        2
Cr       3.60000000       7.20000000       7.20000000      51.99610000      105        3
Cr       3.60000000       9.00000000       9.00000000      51.99610000      106        3
Mn       5.40000000       7.20000000       9.00000000      54.93804400      107        5
Co       5.40000000       9.00000000       7.20000000      58.93319400      108        1
Co       3.60000000       7.20000000      10.80000000      58.93319400      109        1
Mn       3.60000000       9.00000000      12.60000000      54.93804400      110        5
Fe       5.40000000       7.20000000      12.60000000      55.84500000      111        4
Mn       5.40000000       9.00000000      10.80000000      54.93804400      112        5
Mn       3.60000000      10.80000000       0.00000000      54.93804400      113        5
Fe       3.60000000      12.60000000       1.80000000      55.84500000      114        4
Fe       5.40000000      10.80000000       1.80000000      55.84500000      115        4
Fe       5.40000000      12.60000000       0.00000000      55.84500000      116        4
Mn       3.60000000      10.80000000       3.60000000      54.93804400      117        5
Mn       3.60000000      12.60000000       5.40000000      54.93804400      118        5
Mn       5.40000000      10.80000000       5.40000000      54.93804400      119        5
Fe       5.40000000      12.60000000       3.60000000      55.84500000      120        4
Ni       3.60000000      10.80000000       7.20000000      58.69340000      121        2
Cr       3.60000000      12.60000000       9.00000000      51.99610000      122        3
Cr       5.40000000      10.80000000       9.00000000      51.99610000      123        3
Co       5.40000000      12.60000000       7.20000000      58.93319400      124        1
Co       3.60000000      10.80000000      10.80000000      58.93319400      125        1
Ni       3.60000000      12.60000000      12.60000000      58.69340000      126        2
Fe       5.40000000      10.80000000      12.60000000      55.84500000      127        4
Mn       5.40000000      12.60000000      10.80000000      54.93804400      128        5
Mn       7.20000000       0.00000000       0.00000000      54.93804400      129        5
Mn       7.20000000       1.80000000       1.80000000      54.93804400      130        5
Fe       9.00000000       0.00000000       1.80000000      55.84500000      131        4
Fe       9.00000000       1.80000000       0.00000000      55.84500000      132        4
Mn       7.20000000       0.00000000       3.60000000      54.93804400      133        5
Mn       7.20000000       1.80000000       5.40000000      54.93804400      134        5
Fe       9.00000000       0.00000000       5.40000000      55.84500000      135        4
Cr       9.00000000       1.80000000       3.60000000      51.99610000      136        3
Mn       7.20000000       0.00000000       7.20000000      54.93804400      137        5
Fe       7.20000000       1.80000000       9.00000000      55.84500000      138        4
Fe       9.00000000       0.00000000       9.00000000      55.84500000      139        4
Mn       9.00000000       1.80000000       7.20000000      54.93804400      140        5
Fe       7.20000000       0.00000000      10.80000000      55.84500000      141        4
Fe       7.20000000       1.80000000      12.60000000      55.84500000      142        4
Fe       9.00000000       0.00000000      12.60000000      55.84500000      143        4
Mn       9.00000000       1.80000000      10.80000000      54.93804400      144        5
Fe       7.20000000       3.60000000       0.00000000      55.84500000      145        4
Cr       7.20000000       5.40000000       1.80000000      51.99610000      146        3
Co       9.00000000       3.60000000       1.80000000      58.93319400      147        1
Ni       9.00000000       5.40000000       0.00000000      58.69340000      148        2
Co       7.20000000       3.60000000       3.60000000      58.93319400      149        1
Cr       7.20000000       5.40000000       5.40000000      51.99610000      150        3
Co       9.00000000       3.60000000       5.40000000      58.93319400      151        1
Mn       9.00000000       5.40000000       3.60000000      54.93804400      152        5
Mn       7.20000000       3.60000000       7.20000000      54.93804400      153        5
Fe       7.20000000       5.40000000       9.00000000      55.84500000      154        4
Fe       9.00000000       3.60000000       9.00000000      55.84500000      155        4
Mn       9.00000000       5.40000000       7.20000000      54.93804400      156        5
Mn       7.20000000       3.60000000      10.80000000      54.93804400      157        5
Fe       7.20000000       5.40000000      12.60000000      55.84500000      158        4
Mn       9.00000000       3.60000000      12.60000000      54.93804400      159        5
Mn       9.00000000       5.40000000      10.80000000      54.93804400      160        5
Mn       7.20000000       7.20000000       0.00000000      54.93804400      161        5
Cr       7.20000000       9.00000000       1.80000000      51.99610000      162        3
Co       9.00000000       7.20000000       1.80000000      58.93319400      163        1
Co       9.00000000       9.00000000       0.00000000      58.93319400      164        1
Co       7.20000000       7.20000000       3.60000000      58.93319400      165        1
Cr       7.20000000       9.00000000       5.40000000      51.99610000      166        3
Fe       9.00000000       7.20000000       5.40000000      55.84500000      167        4
Mn       9.00000000       9.00000000       3.60000000      54.93804400      168        5
Mn       7.20000000       7.20000000       7.20000000      54.93804400      169        5
Fe       7.20000000       9.00000000       9.00000000      55.84500000      170        4
Fe       9.00000000       7.20000000       9.00000000      55.84500000      171        4
Fe       9.00000000       9.00000000       7.20000000      55.84500000      172        4
Fe       7.20000000       7.20000000      10.80000000      55.84500000      173        4
Fe       7.20000000       9.00000000      12.60000000      55.84500000      174        4
Co       9.00000000       7.20000000      12.60000000      58.93319400      175        1
Mn       9.00000000       9.00000000      10.80000000      54.93804400      176        5
Mn       7.20000000      10.80000000       0.00000000      54.93804400      177        5
Fe       7.20000000      12.60000000       1.80000000      55.84500000      178        4
Mn       9.00000000      10.80000000       1.80000000      54.93804400      179        5
Fe       9.00000000      12.60000000       0.00000000      55.84500000      180        4
Mn       7.20000000      10.80000000       3.60000000      54.93804400      181        5
Fe       7.20000000      12.60000000       5.40000000      55.84500000      182        4
Fe       9.00000000      10.80000000       5.40000000      55.84500000      183        4
Mn       9.00000000      12.60000000       3.60000000      54.93804400      184        5
Cr       7.20000000      10.80000000       7.20000000      51.99610000      185        3
Co       7.20000000      12.60000000       9.00000000      58.93319400      186        1
Mn       9.00000000      10.80000000       9.00000000      54.93804400      187        5
Mn       9.00000000      12.60000000       7.20000000      54.93804400      188        5
Fe       7.20000000      10.80000000      10.80000000      55.84500000      189        4
Mn       7.20000000      12.60000000      12.60000000      54.93804400      190        5
Mn       9.00000000      10.80000000      12.60000000      54.93804400      191        5
Ni       9.00000000      12.60000000      10.80000000      58.69340000      192        2
Mn      10.80000000       0.00000000       0.00000000      54.93804400      193        5
Co      10.80000000       1.80000000       1.80000000      58.93319400      194        1
Cr      12.60000000       0.00000000       1.80000000      51.99610000      195        3
Mn      12.60000000       1.80000000       0.00000000      54.93804400      196        5
Co      10.80000000       0.00000000       3.60000000      58.93319400      197        1
Cr      10.80000000       1.80000000       5.40000000      51.99610000      198        3
Fe      12.60000000       0.00000000       5.40000000      55.84500000      199        4
Ni      12.60000000       1.80000000       3.60000000      58.69340000      200        2
Ni      10.80000000       0.00000000       7.20000000      58.69340000      201        2
Fe      10.80000000       1.80000000       9.00000000      55.84500000      202        4
Ni      12.60000000       0.00000000       9.00000000      58.69340000      203        2
Ni      12.60000000       1.80000000       7.20000000      58.69340000      204        2
Mn      10.80000000       0.00000000      10.80000000      54.93804400      205        5
Fe      10.80000000       1.80000000      12.60000000      55.84500000      206        4
Fe      12.60000000       0.00000000      12.60000000      55.84500000      207        4
Mn      12.60000000       1.80000000      10.80000000      54.93804400      208        5
Ni      10.80000000       3.60000000       0.00000000      58.69340000      209        2
Ni      10.80000000       5.40000000       1.80000000      58.69340000      210        2
Ni      12.60000000       3.60000000       1.80000000      58.69340000      211        2
Co      12.60000000       5.40000000       0.00000000      58.93319400      212        1
Cr      10.80000000       3.60000000       3.60000000      51.99610000      213        3
Co      10.80000000       5.40000000       5.40000000      58.93319400      214        1
Co      12.60000000       3.60000000       5.40000000      58.93319400      215        1
Ni      12.60000000       5.40000000       3.60000000      58.69340000      216        2
Cr      10.80000000       3.60000000       7.20000000      51.99610000      217        3
Co      10.80000000       5.40000000       9.00000000      58.93319400      218        1
Co      12.60000000       3.60000000       9.00000000      58.93319400      219        1
Cr      12.60000000       5.40000000       7.20000000      51.99610000      220        3
Mn      10.80000000       3.60000000      10.80000000      54.93804400      221        5
Cr      10.80000000       5.40000000      12.60000000      51.99610000      222        3
Fe      12.60000000       3.60000000      12.60000000      55.84500000      223        4
Co      12.60000000       5.40000000      10.80000000      58.93319400      224        1
Cr      10.80000000       7.20000000       0.00000000      51.99610000      225        3
Cr      10.80000000       9.00000000       1.80000000      51.99610000      226        3
Co      12.60000000       7.20000000       1.80000000      58.93319400      227        1
Ni      12.60000000       9.00000000       0.00000000      58.69340000      228        2
Cr      10.80000000       7.20000000       3.60000000      51.99610000      229        3
Mn      10.80000000       9.00000000       5.40000000      54.93804400      230        5
Co      12.60000000       7.20000000       5.40000000      58.93319400      231        1
Ni      12.60000000       9.00000000       3.60000000      58.69340000      232        2
Fe      10.80000000       7.20000000       7.20000000      55.84500000      233        4
Cr      10.80000000       9.00000000       9.00000000      51.99610000      234        3
Co      12.60000000       7.20000000       9.00000000      58.93319400      235        1
Co      12.60000000       9.00000000       7.20000000      58.93319400      236        1
Cr      10.80000000       7.20000000      10.80000000      51.99610000      237        3
Cr      10.80000000       9.00000000      12.60000000      51.99610000      238        3
Cr      12.60000000       7.20000000      12.60000000      51.99610000      239        3
Co      12.60000000       9.00000000      10.80000000      58.93319400      240        1
Co      10.80000000      10.80000000       0.00000000      58.93319400      241        1
Co      10.80000000      12.60000000       1.80000000      58.93319400      242        1
Ni      12.60000000      10.80000000       1.80000000      58.69340000      243        2
Ni      12.60000000      12.60000000       0.00000000      58.69340000      244        2
Co      10.80000000      10.80000000       3.60000000      58.93319400      245        1
Ni      10.80000000      12.60000000       5.40000000      58.69340000      246        2
Ni      12.60000000      10.80000000       5.40000000      58.69340000      247        2
Cr      12.60000000      12.60000000       3.60000000      51.99610000      248        3
Ni      10.80000000      10.80000000       7.20000000      58.69340000      249        2
Ni      10.80000000      12.60000000       9.00000000      58.69340000      250        2
Ni      12.60000000      10.80000000       9.00000000      58.69340000      251        2
Ni      12.60000000      12.60000000       7.20000000      58.69340000      252        2
Ni      10.80000000      10.80000000      10.80000000      58.69340000      253        2
Mn      10.80000000      12.60000000      12.60000000      54.93804400      254        5
Ni      12.60000000      10.80000000      12.60000000      58.69340000      255        2
Ni      12.60000000      12.60000000      10.80000000      58.69340000      256        2
