256
Lattice="14.4 0.0 0.0 0.0 14.4 0.0 0.0 0.0 14.4" Properties=species:S:1:pos:R:3:masses:R:1:id:I:1:type:I:1 comment="(written by ASE)" energy=-1018.75771173218 pbc="T T T"
Mn       0.00000000       0.00000000       0.00000000      54.93804400        1        5
Co       0.00000000       1.80000000       1.80000000      58.93319400        2        1
Mn       1.80000000       0.00000000       1.80000000      54.93804400        3        5
Mn       1.80000000       1.80000000       0.00000000      54.93804400        4        5
Fe       0.00000000       0.00000000       3.60000000      55.84500000        5        4
Ni       0.00000000       1.80000000       5.40000000      58.69340000        6        2
Fe       1.80000000       0.00000000       5.40000000      55.84500000        7        4
Cr       1.80000000       1.80000000       3.60000000      51.99610000        8        3
Ni       0.00000000       0.00000000       7.20000000      58.69340000        9        2
Ni       0.00000000       1.80000000       9.00000000      58.69340000       10        2
Fe       1.80000000       0.00000000       9.00000000      55.84500000       11        4
Fe       1.80000000       1.80000000       7.20000000      55.84500000       12        4
Ni       0.00000000       0.00000000      10.80000000      58.69340000       13        2
Mn       0.00000000       1.80000000      12.60000000      54.93804400       14        5
Fe       1.80000000       0.00000000      12.60000000      55.84500000       15        4
Ni       1.80000000       1.80000000      10.80000000      58.69340000       16        2
Mn       0.00000000       3.60000000       0.00000000      54.93804400       17        5
Co       0.00000000       5.40000000       1.80000000      58.93319400       18        1
Co       1.80000000       3.60000000       1.80000000      58.93319400       19        1
Mn       1.80000000       5.40000000       0.00000000      54.93804400       20        5
Cr       0.00000000       3.60000000       3.60000000      51.99610000       21        3
Fe       0.00000000       5.40000000       5.40000000      55.84500000       22        4
Fe       1.80000000       3.60000000       5.40000000      55.84500000       23        4
Cr       1.80000000       5.40000000       3.60000000      51.99610000       24        3
Mn       0.00000000       3.60000000       7.20000000      54.93804400       25        5
Co       0.00000000       5.40000000       9.00000000      58.93319400       26        1
Ni       1.80000000       3.60000000       9.00000000      58.69340000       27        2
Ni       1.80000000       5.40000000       7.20000000      58.69340000       28        2
Co       0.00000000       3.60000000      10.80000000      58.93319400       29        1
Fe       0.00000000       5.40000000      12.60000000      55.84500000       30        4
Mn       1.80000000       3.60000000      12.60000000      54.93804400       31        5
Ni       1.80000000       5.40000000      10.80000000      58.69340000       32        2
Fe       0.00000000       7.20000000       0.00000000      55.84500000       33        4
Cr       0.00000000       9.00000000       1.80000000      51.99610000       34        3
Co       1.80000000       7.20000000       1.80000000      58.93319400       35        1
Cr       1.80000000       9.00000000       0.00000000      51.99610000       36        3
Cr       0.00000000       7.20000000       3.60000000      51.99610000       37        3
Cr       0.00000000       9.00000000       5.40000000      51.99610000       38        3
Fe       1.80000000       7.20000000       5.40000000      55.84500000       39        4
Cr       1.80000000       9.00000000       3.60000000      51.99610000       40        3
Mn       0.00000000       7.20000000       7.20000000      54.93804400       41        5
Mn       0.00000000       9.00000000       9.00000000      54.93804400       42        5
Ni       1.80000000       7.20000000       9.00000000      58.69340000       43        2
Fe       1.80000000       9.00000000       7.20000000      55.84500000       44        4
Ni       0.00000000       7.20000000      10.80000000      58.69340000       45        2
Ni       0.00000000       9.00000000      12.60000000      58.69340000       46        2
Ni       1.80000000       7.20000000      12.60000000      58.69340000       47        2
Ni       1.80000000       9.00000000      10.80000000      58.69340000       48        2
Fe       0.00000000      10.80000000       0.00000000      55.84500000       49        4
Cr       0.00000000      12.60000000       1.80000000      51.99610000       50        3
Fe       1.80000000      10.80000000       1.80000000      55.84500000       51        4
Cr       1.80000000      12.60000000       0.00000000      51.99610000       52        3
Fe       0.00000000      10.80000000       3.60000000      55.84500000       53        4
Ni       0.00000000      12.60000000       5.40000000      58.69340000       54        2
Fe       1.80000000      10.80000000       5.40000000      55.84500000       55        4
Mn       1.80000000      12.60000000       3.60000000      54.93804400       56        5
Cr       0.00000000      10.80000000       7.20000000      51.99610000       57        3
Fe       0.00000000      12.60000000       9.00000000      55.84500000       58        4
Cr       1.80000000      10.80000000       9.00000000      51.99610000       59        3
Cr       1.80000000      12.60000000       7.20000000      51.99610000       60        3
Fe       0.00000000      10.80000000      10.80000000      55.84500000       61        4
Fe       0.00000000      12.60000000      12.60000000      55.84500000       62        4
Fe       1.80000000      10.80000000      12.60000000      55.84500000       63        4
Cr       1.80000000      12.60000000      10.80000000      51.99610000       64        3
Cr       3.60000000       0.00000000       0.00000000      51.99610000       65        3
Cr       3.60000000       1.80000000       1.80000000      51.99610000       66        3
Cr       5.40000000       0.00000000       1.80000000      51.99610000       67        3
Fe       5.40000000       1.80000000       0.00000000      55.84500000       68        4
Co       3.60000000       0.00000000       3.60000000      58.93319400       69        1
Cr       3.60000000       1.80000000       5.40000000      51.99610000       70        3
Co       5.40000000       0.00000000       5.40000000      58.93319400       71        1
Co       5.40000000       1.80000000       3.60000000      58.93319400       72        1
Fe       3.60000000       0.00000000       7.20000000      55.84500000       73        4
Fe       3.60000000       1.80000000       9.00000000      55.84500000       74        4
Co       5.40000000       0.00000000       9.00000000      58.93319400       75        1
Mn       5.40000000       1.80000000       7.20000000      54.93804400       76        5
Cr       3.60000000       0.00000000      10.80000000      51.99610000       77        3
Fe       3.60000000       1.80000000      12.60000000      55.84500000       78        4
Fe       5.40000000       0.00000000      12.60000000      55.84500000       79        4
Cr       5.40000000       1.80000000      10.80000000      51.99610000       80        3
Ni       3.60000000       3.60000000       0.00000000      58.69340000       81        2
Mn       3.60000000       5.40000000       1.80000000      54.93804400       82        5
Mn       5.40000000       3.60000000       1.80000000      54.93804400       83        5
Ni       5.40000000       5.40000000       0.00000000      58.69340000       84        2
Fe       3.60000000       3.60000000       3.60000000      55.84500000       85        4
Cr       3.60000000       5.40000000       5.40000000      51.99610000       86        3
Co       5.40000000       3.60000000       5.40000000      58.93319400       87        1
Mn       5.40000000       5.40000000       3.60000000      54.93804400       88        5
Fe       3.60000000       3.60000000       7.20000000      55.84500000       89        4
Ni       3.60000000       5.40000000       9.00000000      58.69340000       90        2
Cr       5.40000000       3.60000000       9.00000000      51.99610000       91        3
Mn       5.40000000       5.40000000       7.20000000      54.93804400       92        5
Ni       3.60000000       3.60000000      10.80000000      58.69340000       93        2
Ni       3.60000000       5.40000000      12.60000000      58.69340000       94        2
Fe       5.40000000       3.60000000      12.60000000      55.84500000       95        4
Ni       5.40000000       5.40000000      10.80000000      58.69340000       96        2
Co       3.60000000       7.20000000       0.00000000      58.93319400       97        1
Co       3.60000000       9.00000000       1.80000000      58.93319400       98        1
Co       5.40000000       7.20000000       1.80000000      58.93319400       99        1
Cr       5.40000000       9.00000000       0.00000000      51.99610000      100        3
Co       3.60000000       7.20000000       3.60000000      58.93319400      101        1
Cr       3.60000000       9.00000000       5.40000000      51.99610000      102        3
Co       5.40000000       7.20000000       5.40000000      58.93319400      103        1
Mn       5.40000000       9.00000000       3.60000000      54.93804400      104        5
Ni       3.60000000       7.20000000       7.20000000      58.69340000      105        2
Mn       3.60000000       9.00000000       9.00000000      54.93804400      106        5
Ni       5.40000000       7.20000000       9.00000000      58.69340000      107        2
Mn       5.40000000       9.00000000       7.20000000      54.93804400      108        5
Ni       3.60000000       7.20000000      10.80000000      58.69340000      109        2
Fe       3.60000000       9.00000000      12.60000000      55.84500000      110        4
Mn       5.40000000       7.20000000      12.60000000      54.93804400      111        5
Mn       5.40000000       9.00000000      10.80000000      54.93804400      112        5
Cr       3.60000000      10.80000000       0.00000000      51.99610000      113        3
Fe       3.60000000      12.60000000       1.80000000      55.84500000      114        4
Ni       5.40000000      10.80000000       1.80000000      58.69340000      115        2
Fe       5.40000000      12.60000000       0.00000000      55.84500000      116        4
Mn       3.60000000      10.80000000       3.60000000      54.93804400      117        5
Mn       3.60000000      12.60000000       5.40000000      54.93804400      118        5
Co       5.40000000      10.80000000       5.40000000      58.93319400      119        1
Mn       5.40000000      12.60000000       3.60000000      54.93804400      120        5
Co       3.60000000      10.80000000       7.20000000      58.93319400      121        1
Cr       3.60000000      12.60000000       9.00000000      51.99610000      122        3
Co       5.40000000      10.80000000       9.00000000      58.93319400      123        1
Mn       5.40000000      12.60000000       7.20000000      54.93804400      124        5
Fe       3.60000000      10.80000000      10.80000000      55.84500000      125        4
Fe       3.60000000      12.60000000      12.60000000      55.84500000      126        4
Fe       5.40000000      10.80000000      12.60000000      55.84500000      127        4
Cr       5.40000000      12.60000000      10.80000000      51.99610000      128        3
Cr       7.20000000       0.00000000       0.00000000      51.99610000      129        3
Mn       7.20000000       1.80000000       1.80000000      54.93804400      130        5
Ni       9.00000000       0.00000000       1.80000000      58.69340000      131        2
Ni       9.00000000       1.80000000       0.00000000      58.69340000      132        2
Co       7.20000000       0.00000000       3.60000000      58.93319400      133        1
Mn       7.20000000       1.80000000       5.40000000      54.93804400      134        5
Mn       9.00000000       0.00000000       5.40000000      54.93804400      135        5
Mn       9.00000000       1.80000000       3.60000000      54.93804400      136        5
Mn       7.20000000       0.00000000       7.20000000      54.93804400      137        5
Co       7.20000000       1.80000000       9.00000000      58.93319400      138        1
Ni       9.00000000       0.00000000       9.00000000      58.69340000      139        2
Mn       9.00000000       1.80000000       7.20000000      54.93804400      140        5
Cr       7.20000000       0.00000000      10.80000000      51.99610000      141        3
Cr       7.20000000       1.80000000      12.60000000      51.99610000      142        3
Fe       9.00000000       0.00000000      12.60000000      55.84500000      143        4
Mn       9.00000000       1.80000000      10.80000000      54.93804400      144        5
Ni       7.20000000       3.60000000       0.00000000      58.69340000      145        2
Mn       7.20000000       5.40000000       1.80000000      54.93804400      146        5
Mn       9.00000000       3.60000000       1.80000000      54.93804400      147        5
Co       9.00000000       5.40000000       0.00000000      58.93319400      148        1
Co       7.20000000       3.60000000       3.60000000      58.93319400      149        1
Mn       7.20000000       5.40000000       5.40000000      54.93804400      150        5
Mn       9.00000000       3.60000000       5.40000000      54.93804400      151        5
Ni       9.00000000       5.40000000       3.60000000      58.69340000      152        2
Co       7.20000000       3.60000000       7.20000000      58.93319400      153        1
Mn       7.20000000       5.40000000       9.00000000      54.93804400      154        5
Co       9.00000000       3.60000000       9.00000000      58.93319400      155        1
Mn       9.00000000       5.40000000       7.20000000      54.93804400      156        5
Fe       7.20000000       3.60000000      10.80000000      55.84500000      157        4
Cr       7.20000000       5.40000000      12.60000000      51.99610000      158        3
Fe       9.00000000       3.60000000      12.60000000      55.84500000      159        4
Cr       9.00000000       5.40000000      10.80000000      51.99610000      160        3
Mn       7.20000000       7.20000000       0.00000000      54.93804400      161        5
Co       7.20000000       9.00000000       1.80000000      58.93319400      162        1
Cr       9.00000000       7.20000000       1.80000000      51.99610000      163        3
Cr       9.00000000       9.00000000       0.00000000      51.99610000      164        3
Co       7.20000000       7.20000000       3.60000000      58.93319400      165        1
Co       7.20000000       9.00000000       5.40000000      58.93319400      166        1
Co       9.00000000       7.20000000       5.40000000      58.93319400      167        1
Cr       9.00000000       9.00000000       3.60000000      51.99610000      168        3
Co       7.20000000       7.20000000       7.20000000      58.93319400      169        1
Co       7.20000000       9.00000000       9.00000000      58.93319400      170        1
Co       9.00000000       7.20000000       9.00000000      58.93319400      171        1
Mn       9.00000000       9.00000000       7.20000000      54.93804400      172        5
Mn       7.20000000       7.20000000      10.80000000      54.93804400      173        5
Co       7.20000000       9.00000000      12.60000000      58.93319400      174        1
Co       9.00000000       7.20000000      12.60000000      58.93319400      175        1
Mn       9.00000000       9.00000000      10.80000000      54.93804400      176        5
Cr       7.20000000      10.80000000       0.00000000      51.99610000      177        3
Fe       7.20000000      12.60000000       1.80000000      55.84500000      178        4
Fe       9.00000000      10.80000000       1.80000000      55.84500000      179        4
Cr       9.00000000      12.60000000       0.00000000      51.99610000      180        3
Mn       7.20000000      10.80000000       3.60000000      54.93804400      181        5
Mn       7.20000000      12.60000000       5.40000000      54.93804400      182        5
Co       9.00000000      10.80000000       5.40000000      58.93319400      183        1
Ni       9.00000000      12.60000000       3.60000000      58.69340000      184        2
Mn       7.20000000      10.80000000       7.20000000      54.93804400      185        5
Co       7.20000000      12.60000000       9.00000000      58.93319400      186        1
Co       9.00000000      10.80000000       9.00000000      58.93319400      187        1
Ni       9.00000000      12.60000000       7.20000000      58.69340000      188        2
Mn       7.20000000      10.80000000      10.80000000      54.93804400      189        5
Fe       7.20000000      12.60000000      12.60000000      55.84500000      190        4
Co       9.00000000      10.80000000      12.60000000      58.93319400      191        1
Mn       9.00000000      12.60000000      10.80000000      54.93804400      192        5
Fe      10.80000000       0.00000000       0.00000000      55.84500000      193        4
Ni      10.80000000       1.80000000       1.80000000      58.69340000      194        2
Cr      12.60000000       0.00000000       1.80000000      51.99610000      195        3
Fe      12.60000000       1.80000000       0.00000000      55.84500000      196        4
Ni      10.80000000       0.00000000       3.60000000      58.69340000      197        2
Ni      10.80000000       1.80000000       5.40000000      58.69340000      198        2
Ni      12.60000000       0.00000000       5.40000000      58.69340000      199        2
Ni      12.60000000       1.80000000       3.60000000      58.69340000      200        2
Ni      10.80000000       0.00000000       7.20000000      58.69340000      201        2
Mn      10.80000000       1.80000000       9.00000000      54.93804400      202        5
Ni      12.60000000       0.00000000       9.00000000      58.69340000      203        2
Ni      12.60000000       1.80000000       7.20000000      58.69340000      204        2
Ni      10.80000000       0.00000000      10.80000000      58.69340000      205        2
Mn      10.80000000       1.80000000      12.60000000      54.93804400      206        5
Mn      12.60000000       0.00000000      12.60000000      54.93804400      207        5
Mn      12.60000000       1.80000000      10.80000000      54.93804400      208        5
Fe      10.80000000       3.60000000       0.00000000      55.84500000      209        4
Cr      10.80000000       5.40000000       1.80000000      51.99610000      210        3
Cr      12.60000000       3.60000000       1.80000000      51.99610000      211        3
Cr      12.60000000       5.40000000       0.00000000      51.99610000      212        3
Fe      10.80000000       3.60000000       3.60000000      55.84500000      213        4
Mn      10.80000000       5.40000000       5.40000000      54.93804400      214        5
Ni      12.60000000       3.60000000       5.40000000      58.69340000      215        2
Fe      12.60000000       5.40000000       3.60000000      55.84500000      216        4
Co      10.80000000       3.60000000       7.20000000      58.93319400      217        1
Co      10.80000000       5.40000000       9.00000000      58.93319400      218        1
Mn      12.60000000       3.60000000       9.00000000      54.93804400      219        5
Mn      12.60000000       5.40000000       7.20000000      54.93804400      220        5
Co      10.80000000       3.60000000      10.80000000      58.93319400      221        1
Cr      10.80000000       5.40000000      12.60000000      51.99610000      222        3
Co      12.60000000       3.60000000      12.60000000      58.93319400      223        1
Cr      12.60000000       5.40000000      10.80000000      51.99610000      224        3
Co      10.80000000       7.20000000       0.00000000      58.93319400      225        1
Fe      10.80000000       9.00000000       1.80000000      55.84500000      226        4
Cr      12.60000000       7.20000000       1.80000000      51.99610000      227        3
Fe      12.60000000       9.00000000       0.00000000      55.84500000      228        4
Fe      10.80000000       7.20000000       3.60000000      55.84500000      229        4
Mn      10.80000000       9.00000000       5.40000000      54.93804400      230        5
Fe      12.60000000       7.20000000       5.40000000      55.84500000      231        4
Fe      12.60000000       9.00000000       3.60000000      55.84500000      232        4
Mn      10.80000000       7.20000000       7.20000000      54.93804400      233        5
Mn      10.80000000       9.00000000       9.00000000      54.93804400      234        5
Co      12.60000000       7.20000000       9.00000000      58.93319400      235        1
Co      12.60000000       9.00000000       7.20000000      58.93319400      236        1
Co      10.80000000       7.20000000      10.80000000      58.93319400      237        1
Co      10.80000000       9.00000000      12.60000000      58.93319400      238        1
Cr      12.60000000       7.20000000      12.60000000      51.99610000      239        3
Mn      12.60000000       9.00000000      10.80000000      54.93804400      240        5
Cr      10.80000000      10.80000000       0.00000000      51.99610000      241        3
Fe      10.80000000      12.60000000       1.80000000      55.84500000      242        4
Cr      12.60000000      10.80000000       1.80000000      51.99610000      243        3
Fe      12.60000000      12.60000000       0.00000000      55.84500000      244        4
Fe      10.80000000      10.80000000       3.60000000      55.84500000      245        4
Ni      10.80000000      12.60000000       5.40000000      58.69340000      246        2
Mn      12.60000000      10.80000000       5.40000000      54.93804400      247        5
Fe      12.60000000      12.60000000       3.60000000      55.84500000      248        4
Mn      10.80000000      10.80000000       7.20000000      54.93804400      249        5
Ni      10.80000000      12.60000000       9.00000000      58.69340000      250        2
Ni      12.60000000      10.80000000       9.00000000      58.69340000      251        2
Ni      12.60000000      12.60000000       7.20000000      58.69340000      252        2
Co      10.80000000      10.80000000      10.80000000      58.93319400      253        1
Co      10.80000000      12.60000000      12.60000000      58.93319400      254        1
Mn      12.60000000      10.80000000      12.60000000      54.93804400      255        5
Ni      12.60000000      12.60000000      10.80000000      58.69340000      256        2
