256
Lattice="14.4 0.0 0.0 0.0 14.4 0.0 0.0 0.0 14.4" Properties=species:S:1:pos:R:3:masses:R:1:id:I:1:type:I:1 comment="(written by ASE)" energy=-1023.44065786234 pbc="T T T"
Mn       0.00000000       0.00000000       0.00000000      54.93804400        1        5
Fe       0.00000000       1.80000000       1.80000000      55.84500000        2        4
Ni       1.80000000       0.00000000       1.80000000      58.69340000        3        2
Ni       1.80000000       1.80000000       0.00000000      58.69340000        4        2
Mn       0.00000000       0.00000000       3.60000000      54.93804400        5        5
Ni       0.00000000       1.80000000       5.40000000      58.69340000        6        2
Fe       1.80000000       0.00000000       5.40000000      55.84500000        7        4
Ni       1.80000000       1.80000000       3.60000000      58.69340000        8        2
Ni       0.00000000       0.00000000       7.20000000      58.69340000        9        2
Mn       0.00000000       1.80000000       9.00000000      54.93804400       10        5
Fe       1.80000000       0.00000000       9.00000000      55.84500000       11        4
Mn       1.80000000       1.80000000       7.20000000      54.93804400       12        5
Mn       0.00000000       0.00000000      10.80000000      54.93804400       13        5
Fe       0.00000000       1.80000000      12.60000000      55.84500000       14        4
Ni       1.80000000       0.00000000      12.60000000      58.69340000       15        2
Fe       1.80000000       1.80000000      10.80000000      55.84500000       16        4
Mn       0.00000000       3.60000000       0.00000000      54.93804400       17        5
Cr       0.00000000       5.40000000       1.80000000      51.99610000       18        3
Ni       1.80000000       3.60000000       1.80000000      58.69340000       19        2
Ni       1.80000000       5.40000000       0.00000000      58.69340000       20        2
Co       0.00000000       3.60000000       3.60000000      58.93319400       21        1
Co       0.00000000       5.40000000       5.40000000      58.93319400       22        1
Cr       1.80000000       3.60000000       5.40000000      51.99610000       23        3
Co       1.80000000       5.40000000       3.60000000      58.93319400       24        1
Fe       0.00000000       3.60000000       7.20000000      55.84500000       25        4
Co       0.00000000       5.40000000       9.00000000      58.93319400       26        1
Cr       1.80000000       3.60000000       9.00000000      51.99610000       27        3
Co       1.80000000       5.40000000       7.20000000      58.93319400       28        1
Mn       0.00000000       3.60000000      10.80000000      54.93804400       29        5
Fe       0.00000000       5.40000000      12.60000000      55.84500000       30        4
Mn       1.80000000       3.60000000      12.60000000      54.93804400       31        5
Fe       1.80000000       5.40000000      10.80000000      55.84500000       32        4
Co       0.00000000       7.20000000       0.00000000      58.93319400       33        1
Fe       0.00000000       9.00000000       1.80000000      55.84500000       34        4
Co       1.80000000       7.20000000       1.80000000      58.93319400       35        1
Cr       1.80000000       9.00000000       0.00000000      51.99610000       36        3
Co       0.00000000       7.20000000       3.60000000      58.93319400       37        1
Fe       0.00000000       9.00000000       5.40000000      55.84500000       38        4
Cr       1.80000000       7.20000000       5.40000000      51.99610000       39        3
Cr       1.80000000       9.00000000       3.60000000      51.99610000       40        3
Cr       0.00000000       7.20000000       7.20000000      51.99610000       41        3
Cr       0.00000000       9.00000000       9.00000000      51.99610000       42        3
Co       1.80000000       7.20000000       9.00000000      58.93319400       43        1
Co       1.80000000       9.00000000       7.20000000      58.93319400       44        1
Ni       0.00000000       7.20000000      10.80000000      58.69340000       45        2
Fe       0.00000000       9.00000000      12.60000000      55.84500000       46        4
Mn       1.80000000       7.20000000      12.60000000      54.93804400       47        5
Ni       1.80000000       9.00000000      10.80000000      58.69340000       48        2
Mn       0.00000000      10.80000000       0.00000000      54.93804400       49        5
Ni       0.00000000      12.60000000       1.80000000      58.69340000       50        2
Mn       1.80000000      10.80000000       1.80000000      54.93804400       51        5
Fe       1.80000000      12.60000000       0.00000000      55.84500000       52        4
Mn       0.00000000      10.80000000       3.60000000      54.93804400       53        5
Ni       0.00000000      12.60000000       5.40000000      58.69340000       54        2
Mn       1.80000000      10.80000000       5.40000000      54.93804400       55        5
Fe       1.80000000      12.60000000       3.60000000      55.84500000       56        4
Ni       0.00000000      10.80000000       7.20000000      58.69340000       57        2
Cr       0.00000000      12.60000000       9.00000000      51.99610000       58        3
Mn       1.80000000      10.80000000       9.00000000      54.93804400       59        5
Mn       1.80000000      12.60000000       7.20000000      54.93804400       60        5
Mn       0.00000000      10.80000000      10.80000000      54.93804400       61        5
Fe       0.00000000      12.60000000      12.60000000      55.84500000       62        4
Ni       1.80000000      10.80000000      12.60000000      58.69340000       63        2
Ni       1.80000000      12.60000000      10.80000000      58.69340000       64        2
Mn       3.60000000       0.00000000       0.00000000      54.93804400       65        5
Mn       3.60000000       1.80000000       1.80000000      54.93804400       66        5
Fe       5.40000000       0.00000000       1.80000000      55.84500000       67        4
Fe       5.40000000       1.80000000       0.00000000      55.84500000       68        4
Mn       3.60000000       0.00000000       3.60000000      54.93804400       69        5
Mn       3.60000000       1.80000000       5.40000000      54.93804400       70        5
Fe       5.40000000       0.00000000       5.40000000      55.84500000       71        4
Cr       5.40000000       1.80000000       3.60000000      51.99610000       72        3
Fe       3.60000000       0.00000000       7.20000000      55.84500000       73        4
Mn       3.60000000       1.80000000       9.00000000      54.93804400       74        5
Cr       5.40000000       0.00000000       9.00000000      51.99610000       75        3
Mn       5.40000000       1.80000000       7.20000000      54.93804400       76        5
Mn       3.60000000       0.00000000      10.80000000      54.93804400       77        5
Fe       3.60000000       1.80000000      12.60000000      55.84500000       78        4
Ni       5.40000000       0.00000000      12.60000000      58.69340000       79        2
Mn       5.40000000       1.80000000      10.80000000      54.93804400       80        5
Ni       3.60000000       3.60000000       0.00000000      58.69340000       81        2
Cr       3.60000000       5.40000000       1.80000000      51.99610000       82        3
Ni       5.40000000       3.60000000       1.80000000      58.69340000       83        2
Ni       5.40000000       5.40000000       0.00000000      58.69340000       84        2
Fe       3.60000000       3.60000000       3.60000000      55.84500000       85        4
Co       3.60000000       5.40000000       5.40000000      58.93319400       86        1
Cr       5.40000000       3.60000000       5.40000000      51.99610000       87        3
Co       5.40000000       5.40000000       3.60000000      58.93319400       88        1
Fe       3.60000000       3.60000000       7.20000000      55.84500000       89        4
Co       3.60000000       5.40000000       9.00000000      58.93319400       90        1
Cr       5.40000000       3.60000000       9.00000000      51.99610000       91        3
Mn       5.40000000       5.40000000       7.20000000      54.93804400       92        5
Co       3.60000000       3.60000000      10.80000000      58.93319400       93        1
Fe       3.60000000       5.40000000      12.60000000      55.84500000       94        4
Mn       5.40000000       3.60000000      12.60000000      54.93804400       95        5
Co       5.40000000       5.40000000      10.80000000      58.93319400       96        1
Cr       3.60000000       7.20000000       0.00000000      51.99610000       97        3
Fe       3.60000000       9.00000000       1.80000000      55.84500000       98        4
Co       5.40000000       7.20000000       1.80000000      58.93319400       99        1
Co       5.40000000       9.00000000       0.00000000      58.93319400      100        1
Co       3.60000000       7.20000000       3.60000000      58.93319400      101        1
Mn       3.60000000       9.00000000       5.40000000      54.93804400      102        5
Cr       5.40000000       7.20000000       5.40000000      51.99610000      103        3
Co       5.40000000       9.00000000       3.60000000      58.93319400      104        1
Cr       3.60000000       7.20000000       7.20000000      51.99610000      105        3
Fe       3.60000000       9.00000000       9.00000000      55.84500000      106        4
Cr       5.40000000       7.20000000       9.00000000      51.99610000      107        3
Mn       5.40000000       9.00000000       7.20000000      54.93804400      108        5
Ni       3.60000000       7.20000000      10.80000000      58.69340000      109        2
Fe       3.60000000       9.00000000      12.60000000      55.84500000      110        4
Co       5.40000000       7.20000000      12.60000000      58.93319400      111        1
Mn       5.40000000       9.00000000      10.80000000      54.93804400      112        5
Mn       3.60000000      10.80000000       0.00000000      54.93804400      113        5
Fe       3.60000000      12.60000000       1.80000000      55.84500000      114        4
Cr       5.40000000      10.80000000       1.80000000      51.99610000      115        3
Ni       5.40000000      12.60000000       0.00000000      58.69340000      116        2
Mn       3.60000000      10.80000000       3.60000000      54.93804400      117        5
Ni       3.60000000      12.60000000       5.40000000      58.69340000      118        2
Cr       5.40000000      10.80000000       5.40000000      51.99610000      119        3
Ni       5.40000000      12.60000000       3.60000000      58.69340000      120        2
Fe       3.60000000      10.80000000       7.20000000      55.84500000      121        4
Ni       3.60000000      12.60000000       9.00000000      58.69340000      122        2
Ni       5.40000000      10.80000000       9.00000000      58.69340000      123        2
Mn       5.40000000      12.60000000       7.20000000      54.93804400      124        5
Mn       3.60000000      10.80000000      10.80000000      54.93804400      125        5
Ni       3.60000000      12.60000000      12.60000000      58.69340000      126        2
Fe       5.40000000      10.80000000      12.60000000      55.84500000      127        4
Fe       5.40000000      12.60000000      10.80000000      55.84500000      128        4
Mn       7.20000000       0.00000000       0.00000000      54.93804400      129        5
Mn       7.20000000       1.80000000       1.80000000      54.93804400      130        5
Fe       9.00000000       0.00000000       1.80000000      55.84500000      131        4
Ni       9.00000000       1.80000000       0.00000000      58.69340000      132        2
Mn       7.20000000       0.00000000       3.60000000      54.93804400      133        5
Ni       7.20000000       1.80000000       5.40000000      58.69340000      134        2
Fe       9.00000000       0.00000000       5.40000000      55.84500000      135        4
Cr       9.00000000       1.80000000       3.60000000      51.99610000      136        3
Mn       7.20000000       0.00000000       7.20000000      54.93804400      137        5
Fe       7.20000000       1.80000000       9.00000000      55.84500000      138        4
Cr       9.00000000       0.00000000       9.00000000      51.99610000      139        3
Mn       9.00000000       1.80000000       7.20000000      54.93804400      140        5
Mn       7.20000000       0.00000000      10.80000000      54.93804400      141        5
Fe       7.20000000       1.80000000      12.60000000      55.84500000      142        4
Cr       9.00000000       0.00000000      12.60000000      51.99610000      143        3
Mn       9.00000000       1.80000000      10.80000000      54.93804400      144        5
Mn       7.20000000       3.60000000       0.00000000      54.93804400      145        5
Fe       7.20000000       5.40000000       1.80000000      55.84500000      146        4
Cr       9.00000000       3.60000000       1.80000000      51.99610000      147        3
Cr       9.00000000       5.40000000       0.00000000      51.99610000      148        3
Co       7.20000000       3.60000000       3.60000000      58.93319400      149        1
Cr       7.20000000       5.40000000       5.40000000      51.99610000      150        3
Co       9.00000000       3.60000000       5.40000000      58.93319400      151        1
Mn       9.00000000       5.40000000       3.60000000      54.93804400      152        5
Cr       7.20000000       3.60000000       7.20000000      51.99610000      153        3
Cr       7.20000000       5.40000000       9.00000000      51.99610000      154        3
Co       9.00000000       3.60000000       9.00000000      58.93319400      155        1
Co       9.00000000       5.40000000       7.20000000      58.93319400      156        1
Ni       7.20000000       3.60000000      10.80000000      58.69340000      157        2
Fe       7.20000000       5.40000000      12.60000000      55.84500000      158        4
Mn       9.00000000       3.60000000      12.60000000      54.93804400      159        5
Cr       9.00000000       5.40000000      10.80000000      51.99610000      160        3
Ni       7.20000000       7.20000000       0.00000000      58.69340000      161        2
Cr       7.20000000       9.00000000       1.80000000      51.99610000      162        3
Ni       9.00000000       7.20000000       1.80000000      58.69340000      163        2
Mn       9.00000000       9.00000000       0.00000000      54.93804400      164        5
Cr       7.20000000       7.20000000       3.60000000      51.99610000      165        3
Co       7.20000000       9.00000000       5.40000000      58.93319400      166        1
Fe       9.00000000       7.20000000       5.40000000      55.84500000      167        4
Mn       9.00000000       9.00000000       3.60000000      54.93804400      168        5
Co       7.20000000       7.20000000       7.20000000      58.93319400      169        1
Fe       7.20000000       9.00000000       9.00000000      55.84500000      170        4
Co       9.00000000       7.20000000       9.00000000      58.93319400      171        1
Co       9.00000000       9.00000000       7.20000000      58.93319400      172        1
Co       7.20000000       7.20000000      10.80000000      58.93319400      173        1
Cr       7.20000000       9.00000000      12.60000000      51.99610000      174        3
Mn       9.00000000       7.20000000      12.60000000      54.93804400      175        5
Cr       9.00000000       9.00000000      10.80000000      51.99610000      176        3
Mn       7.20000000      10.80000000       0.00000000      54.93804400      177        5
Ni       7.20000000      12.60000000       1.80000000      58.69340000      178        2
Fe       9.00000000      10.80000000       1.80000000      55.84500000      179        4
Fe       9.00000000      12.60000000       0.00000000      55.84500000      180        4
Mn       7.20000000      10.80000000       3.60000000      54.93804400      181        5
Fe       7.20000000      12.60000000       5.40000000      55.84500000      182        4
Cr       9.00000000      10.80000000       5.40000000      51.99610000      183        3
Ni       9.00000000      12.60000000       3.60000000      58.69340000      184        2
Co       7.20000000      10.80000000       7.20000000      58.93319400      185        1
Fe       7.20000000      12.60000000       9.00000000      55.84500000      186        4
Co       9.00000000      10.80000000       9.00000000      58.93319400      187        1
Mn       9.00000000      12.60000000       7.20000000      54.93804400      188        5
Co       7.20000000      10.80000000      10.80000000      58.93319400      189        1
Co       7.20000000      12.60000000      12.60000000      58.93319400      190        1
Co       9.00000000      10.80000000      12.60000000      58.93319400      191        1
Cr       9.00000000      12.60000000      10.80000000      51.99610000      192        3
Mn      10.80000000       0.00000000       0.00000000      54.93804400      193        5
Co      10.80000000       1.80000000       1.80000000      58.93319400      194        1
Ni      12.60000000       0.00000000       1.80000000      58.69340000      195        2
Cr      12.60000000       1.80000000       0.00000000      51.99610000      196        3
Ni      10.80000000       0.00000000       3.60000000      58.69340000      197        2
Ni      10.80000000       1.80000000       5.40000000      58.69340000      198        2
Ni      12.60000000       0.00000000       5.40000000      58.69340000      199        2
Fe      12.60000000       1.80000000       3.60000000      55.84500000      200        4
Ni      10.80000000       0.00000000       7.20000000      58.69340000      201        2
Cr      10.80000000       1.80000000       9.00000000      51.99610000      202        3
Fe      12.60000000       0.00000000       9.00000000      55.84500000      203        4
Mn      12.60000000       1.80000000       7.20000000      54.93804400      204        5
Mn      10.80000000       0.00000000      10.80000000      54.93804400      205        5
Fe      10.80000000       1.80000000      12.60000000      55.84500000      206        4
Mn      12.60000000       0.00000000      12.60000000      54.93804400      207        5
Cr      12.60000000       1.80000000      10.80000000      51.99610000      208        3
Mn      10.80000000       3.60000000       0.00000000      54.93804400      209        5
Fe      10.80000000       5.40000000       1.80000000      55.84500000      210        4
Ni      12.60000000       3.60000000       1.80000000      58.69340000      211        2
Co      12.60000000       5.40000000       0.00000000      58.93319400      212        1
Co      10.80000000       3.60000000       3.60000000      58.93319400      213        1
Cr      10.80000000       5.40000000       5.40000000      51.99610000      214        3
Mn      12.60000000       3.60000000       5.40000000      54.93804400      215        5
Fe      12.60000000       5.40000000       3.60000000      55.84500000      216        4
Fe      10.80000000       3.60000000       7.20000000      55.84500000      217        4
Co      10.80000000       5.40000000       9.00000000      58.93319400      218        1
Cr      12.60000000       3.60000000       9.00000000      51.99610000      219        3
Co      12.60000000       5.40000000       7.20000000      58.93319400      220        1
Co      10.80000000       3.60000000      10.80000000      58.93319400      221        1
Fe      10.80000000       5.40000000      12.60000000      55.84500000      222        4
Co      12.60000000       3.60000000      12.60000000      58.93319400      223        1
Co      12.60000000       5.40000000      10.80000000      58.93319400      224        1
Mn      10.80000000       7.20000000       0.00000000      54.93804400      225        5
Fe      10.80000000       9.00000000       1.80000000      55.84500000      226        4
Ni      12.60000000       7.20000000       1.80000000      58.69340000      227        2
Mn      12.60000000       9.00000000       0.00000000      54.93804400      228        5
Mn      10.80000000       7.20000000       3.60000000      54.93804400      229        5
Co      10.80000000       9.00000000       5.40000000      58.93319400      230        1
Co      12.60000000       7.20000000       5.40000000      58.93319400      231        1
Cr      12.60000000       9.00000000       3.60000000      51.99610000      232        3
Cr      10.80000000       7.20000000       7.20000000      51.99610000      233        3
Cr      10.80000000       9.00000000       9.00000000      51.99610000      234        3
Co      12.60000000       7.20000000       9.00000000      58.93319400      235        1
Co      12.60000000       9.00000000       7.20000000      58.93319400      236        1
Cr      10.80000000       7.20000000      10.80000000      51.99610000      237        3
Fe      10.80000000       9.00000000      12.60000000      55.84500000      238        4
Ni      12.60000000       7.20000000      12.60000000      58.69340000      239        2
Co      12.60000000       9.00000000      10.80000000      58.93319400      240        1
Ni      10.80000000      10.80000000       0.00000000      58.69340000      241        2
Mn      10.80000000      12.60000000       1.80000000      54.93804400      242        5
Ni      12.60000000      10.80000000       1.80000000      58.69340000      243        2
Fe      12.60000000      12.60000000       0.00000000      55.84500000      244        4
Ni      10.80000000      10.80000000       3.60000000      58.69340000      245        2
Mn      10.80000000      12.60000000       5.40000000      54.93804400      246        5
Ni      12.60000000      10.80000000       5.40000000      58.69340000      247        2
Fe      12.60000000      12.60000000       3.60000000      55.84500000      248        4
Cr      10.80000000      10.80000000       7.20000000      51.99610000      249        3
Fe      10.80000000      12.60000000       9.00000000      55.84500000      250        4
Co      12.60000000      10.80000000       9.00000000      58.93319400      251        1
Mn      12.60000000      12.60000000       7.20000000      54.93804400      252        5
Co      10.80000000      10.80000000      10.80000000      58.93319400      253        1
Cr      10.80000000      12.60000000      12.60000000      51.99610000      254        3
Ni      12.60000000      10.80000000      12.60000000      58.69340000      255        2
Cr      12.60000000      12.60000000      10.80000000      51.99610000      256        3
