256
Lattice="14.4 0.0 0.0 0.0 14.4 0.0 0.0 0.0 14.4" Properties=species:S:1:pos:R:3:masses:R:1:id:I:1:type:I:1 comment="(written by ASE)" energy=-1020.04299010362 pbc="T T T"
Ni       0.00000000       0.00000000       0.00000000      58.69340000        1        2
Mn       0.00000000       1.80000000       1.80000000      54.93804400        2        5
Mn       1.80000000       0.00000000       1.80000000      54.93804400        3        5
Fe       1.80000000       1.80000000       0.00000000      55.84500000        4        4
Co       0.00000000       0.00000000       3.60000000      58.93319400        5        1
Mn       0.00000000       1.80000000       5.40000000      54.93804400        6        5
Mn       1.80000000       0.00000000       5.40000000      54.93804400        7        5
Co       1.80000000       1.80000000       3.60000000      58.93319400        8        1
Co       0.00000000       0.00000000       7.20000000      58.93319400        9        1
Fe       0.00000000       1.80000000       9.00000000      55.84500000       10        4
Cr       1.80000000       0.00000000       9.00000000      51.99610000       11        3
Fe       1.80000000       1.80000000       7.20000000      55.84500000       12        4
Co       0.00000000       0.00000000      10.80000000      58.93319400       13        1
Fe       0.00000000       1.80000000      12.60000000      55.84500000       14        4
Cr       1.80000000       0.00000000      12.60000000      51.99610000       15        3
Fe       1.80000000       1.80000000      10.80000000      55.84500000       16        4
Mn       0.00000000       3.60000000       0.00000000      54.93804400       17        5
Mn       0.00000000       5.40000000       1.80000000      54.93804400       18        5
Mn       1.80000000       3.60000000       1.80000000      54.93804400       19        5
Co       1.80000000       5.40000000       0.00000000      58.93319400       20        1
Fe       0.00000000       3.60000000       3.60000000      55.84500000       21        4
Cr       0.00000000       5.40000000       5.40000000      51.99610000       22        3
Mn       1.80000000       3.60000000       5.40000000      54.93804400       23        5
Ni       1.80000000       5.40000000       3.60000000      58.69340000       24        2
Ni       0.00000000       3.60000000       7.20000000      58.69340000       25        2
Cr       0.00000000       5.40000000       9.00000000      51.99610000       26        3
Mn       1.80000000       3.60000000       9.00000000      54.93804400       27        5
Co       1.80000000       5.40000000       7.20000000      58.93319400       28        1
Co       0.00000000       3.60000000      10.80000000      58.93319400       29        1
Mn       0.00000000       5.40000000      12.60000000      54.93804400       30        5
Fe       1.80000000       3.60000000      12.60000000      55.84500000       31        4
Fe       1.80000000       5.40000000      10.80000000      55.84500000       32        4
Co       0.00000000       7.20000000       0.00000000      58.93319400       33        1
Mn       0.00000000       9.00000000       1.80000000      54.93804400       34        5
Ni       1.80000000       7.20000000       1.80000000      58.69340000       35        2
Cr       1.80000000       9.00000000       0.00000000      51.99610000       36        3
Co       0.00000000       7.20000000       3.60000000      58.93319400       37        1
Ni       0.00000000       9.00000000       5.40000000      58.69340000       38        2
Co       1.80000000       7.20000000       5.40000000      58.93319400       39        1
Mn       1.80000000       9.00000000       3.60000000      54.93804400       40        5
Cr       0.00000000       7.20000000       7.20000000      51.99610000       41        3
Co       0.00000000       9.00000000       9.00000000      58.93319400       42        1
Co       1.80000000       7.20000000       9.00000000      58.93319400       43        1
Fe       1.80000000       9.00000000       7.20000000      55.84500000       44        4
Fe       0.00000000       7.20000000      10.80000000      55.84500000       45        4
Ni       0.00000000       9.00000000      12.60000000      58.69340000       46        2
Mn       1.80000000       7.20000000      12.60000000      54.93804400       47        5
Fe       1.80000000       9.00000000      10.80000000      55.84500000       48        4
Ni       0.00000000      10.80000000       0.00000000      58.69340000       49        2
Cr       0.00000000      12.60000000       1.80000000      51.99610000       50        3
Ni       1.80000000      10.80000000       1.80000000      58.69340000       51        2
Ni       1.80000000      12.60000000       0.00000000      58.69340000       52        2
Mn       0.00000000      10.80000000       3.60000000      54.93804400       53        5
Mn       0.00000000      12.60000000       5.40000000      54.93804400       54        5
Mn       1.80000000      10.80000000       5.40000000      54.93804400       55        5
Ni       1.80000000      12.60000000       3.60000000      58.69340000       56        2
Mn       0.00000000      10.80000000       7.20000000      54.93804400       57        5
Mn       0.00000000      12.60000000       9.00000000      54.93804400       58        5
Fe       1.80000000      10.80000000       9.00000000      55.84500000       59        4
Co       1.80000000      12.60000000       7.20000000      58.93319400       60        1
Cr       0.00000000      10.80000000      10.80000000      51.99610000       61        3
Cr       0.00000000      12.60000000      12.60000000      51.99610000       62        3
Ni       1.80000000      10.80000000      12.60000000      58.69340000       63        2
Co       1.80000000      12.60000000      10.80000000      58.93319400       64        1
Mn       3.60000000       0.00000000       0.00000000      54.93804400       65        5
Co       3.60000000       1.80000000       1.80000000      58.93319400       66        1
Mn       5.40000000       0.00000000       1.80000000      54.93804400       67        5
Fe       5.40000000       1.80000000       0.00000000      55.84500000       68        4
Mn       3.60000000       0.00000000       3.60000000      54.93804400       69        5
Mn       3.60000000       1.80000000       5.40000000      54.93804400       70        5
Mn       5.40000000       0.00000000       5.40000000      54.93804400       71        5
Co       5.40000000       1.80000000       3.60000000      58.93319400       72        1
Fe       3.60000000       0.00000000       7.20000000      55.84500000       73        4
Fe       3.60000000       1.80000000       9.00000000      55.84500000       74        4
Fe       5.40000000       0.00000000       9.00000000      55.84500000       75        4
Fe       5.40000000       1.80000000       7.20000000      55.84500000       76        4
Fe       3.60000000       0.00000000      10.80000000      55.84500000       77        4
Fe       3.60000000       1.80000000      12.60000000      55.84500000       78        4
Mn       5.40000000       0.00000000      12.60000000      54.93804400       79        5
Fe       5.40000000       1.80000000      10.80000000      55.84500000       80        4
Fe       3.60000000       3.60000000       0.00000000      55.84500000       81        4
Cr       3.60000000       5.40000000       1.80000000      51.99610000       82        3
Cr       5.40000000       3.60000000       1.80000000      51.99610000       83        3
Cr       5.40000000       5.40000000       0.00000000      51.99610000       84        3
Ni       3.60000000       3.60000000       3.60000000      58.69340000       85        2
Cr       3.60000000       5.40000000       5.40000000      51.99610000       86        3
Cr       5.40000000       3.60000000       5.40000000      51.99610000       87        3
Ni       5.40000000       5.40000000       3.60000000      58.69340000       88        2
Co       3.60000000       3.60000000       7.20000000      58.93319400       89        1
Mn       3.60000000       5.40000000       9.00000000      54.93804400       90        5
Mn       5.40000000       3.60000000       9.00000000      54.93804400       91        5
Co       5.40000000       5.40000000       7.20000000      58.93319400       92        1
Mn       3.60000000       3.60000000      10.80000000      54.93804400       93        5
Fe       3.60000000       5.40000000      12.60000000      55.84500000       94        4
Fe       5.40000000       3.60000000      12.60000000      55.84500000       95        4
Fe       5.40000000       5.40000000      10.80000000      55.84500000       96        4
Co       3.60000000       7.20000000       0.00000000      58.93319400       97        1
Ni       3.60000000       9.00000000       1.80000000      58.69340000       98        2
Ni       5.40000000       7.20000000       1.80000000      58.69340000       99        2
Co       5.40000000       9.00000000       0.00000000      58.93319400      100        1
Cr       3.60000000       7.20000000       3.60000000      51.99610000      101        3
Fe       3.60000000       9.00000000       5.40000000      55.84500000      102        4
Ni       5.40000000       7.20000000       5.40000000      58.69340000      103        2
Ni       5.40000000       9.00000000       3.60000000      58.69340000      104        2
Mn       3.60000000       7.20000000       7.20000000      54.93804400      105        5
Cr       3.60000000       9.00000000       9.00000000      51.99610000      106        3
Co       5.40000000       7.20000000       9.00000000      58.93319400      107        1
Cr       5.40000000       9.00000000       7.20000000      51.99610000      108        3
Fe       3.60000000       7.20000000      10.80000000      55.84500000      109        4
Co       3.60000000       9.00000000      12.60000000      58.93319400      110        1
Cr       5.40000000       7.20000000      12.60000000      51.99610000      111        3
Ni       5.40000000       9.00000000      10.80000000      58.69340000      112        2
Cr       3.60000000      10.80000000       0.00000000      51.99610000      113        3
Ni       3.60000000      12.60000000       1.80000000      58.69340000      114        2
Ni       5.40000000      10.80000000       1.80000000      58.69340000      115        2
Ni       5.40000000      12.60000000       0.00000000      58.69340000      116        2
Cr       3.60000000      10.80000000       3.60000000      51.99610000      117        3
Mn       3.60000000      12.60000000       5.40000000      54.93804400      118        5
Co       5.40000000      10.80000000       5.40000000      58.93319400      119        1
Co       5.40000000      12.60000000       3.60000000      58.93319400      120        1
Fe       3.60000000      10.80000000       7.20000000      55.84500000      121        4
Cr       3.60000000      12.60000000       9.00000000      51.99610000      122        3
Ni       5.40000000      10.80000000       9.00000000      58.69340000      123        2
Fe       5.40000000      12.60000000       7.20000000      55.84500000      124        4
Cr       3.60000000      10.80000000      10.80000000      51.99610000      125        3
Co       3.60000000      12.60000000      12.60000000      58.93319400      126        1
Cr       5.40000000      10.80000000      12.60000000      51.99610000      127        3
Ni       5.40000000      12.60000000      10.80000000      58.69340000      128        2
Mn       7.20000000       0.00000000       0.00000000      54.93804400      129        5
Fe       7.20000000       1.80000000       1.80000000      55.84500000      130        4
Co       9.00000000       0.00000000       1.80000000      58.93319400      131        1
Fe       9.00000000       1.80000000       0.00000000      55.84500000      132        4
Mn       7.20000000       0.00000000       3.60000000      54.93804400      133        5
Mn       7.20000000       1.80000000       5.40000000      54.93804400      134        5
Mn       9.00000000       0.00000000       5.40000000      54.93804400      135        5
Mn       9.00000000       1.80000000       3.60000000      54.93804400      136        5
Fe       7.20000000       0.00000000       7.20000000      55.84500000      137        4
Fe       7.20000000       1.80000000       9.00000000      55.84500000      138        4
Fe       9.00000000       0.00000000       9.00000000      55.84500000      139        4
Mn       9.00000000       1.80000000       7.20000000      54.93804400      140        5
Fe       7.20000000       0.00000000      10.80000000      55.84500000      141        4
Fe       7.20000000       1.80000000      12.60000000      55.84500000      142        4
Fe       9.00000000       0.00000000      12.60000000      55.84500000      143        4
Mn       9.00000000       1.80000000      10.80000000      54.93804400      144        5
Fe       7.20000000       3.60000000       0.00000000      55.84500000      145        4
Co       7.20000000       5.40000000       1.80000000      58.93319400      146        1
Fe       9.00000000       3.60000000       1.80000000      55.84500000      147        4
Fe       9.00000000       5.40000000       0.00000000      55.84500000      148        4
Ni       7.20000000       3.60000000       3.60000000      58.69340000      149        2
Cr       7.20000000       5.40000000       5.40000000      51.99610000      150        3
Co       9.00000000       3.60000000       5.40000000      58.93319400      151        1
Cr       9.00000000       5.40000000       3.60000000      51.99610000      152        3
Mn       7.20000000       3.60000000       7.20000000      54.93804400      153        5
Fe       7.20000000       5.40000000       9.00000000      55.84500000      154        4
Fe       9.00000000       3.60000000       9.00000000      55.84500000      155        4
Co       9.00000000       5.40000000       7.20000000      58.93319400      156        1
Mn       7.20000000       3.60000000      10.80000000      54.93804400      157        5
Co       7.20000000       5.40000000      12.60000000      58.93319400      158        1
Mn       9.00000000       3.60000000      12.60000000      54.93804400      159        5
Fe       9.00000000       5.40000000      10.80000000      55.84500000      160        4
Mn       7.20000000       7.20000000       0.00000000      54.93804400      161        5
Cr       7.20000000       9.00000000       1.80000000      51.99610000      162        3
Fe       9.00000000       7.20000000       1.80000000      55.84500000      163        4
Fe       9.00000000       9.00000000       0.00000000      55.84500000      164        4
Cr       7.20000000       7.20000000       3.60000000      51.99610000      165        3
Ni       7.20000000       9.00000000       5.40000000      58.69340000      166        2
Ni       9.00000000       7.20000000       5.40000000      58.69340000      167        2
Ni       9.00000000       9.00000000       3.60000000      58.69340000      168        2
Cr       7.20000000       7.20000000       7.20000000      51.99610000      169        3
Co       7.20000000       9.00000000       9.00000000      58.93319400      170        1
Co       9.00000000       7.20000000       9.00000000      58.93319400      171        1
Ni       9.00000000       9.00000000       7.20000000      58.69340000      172        2
Cr       7.20000000       7.20000000      10.80000000      51.99610000      173        3
Co       7.20000000       9.00000000      12.60000000      58.93319400      174        1
Cr       9.00000000       7.20000000      12.60000000      51.99610000      175        3
Ni       9.00000000       9.00000000      10.80000000      58.69340000      176        2
Fe       7.20000000      10.80000000       0.00000000      55.84500000      177        4
Mn       7.20000000      12.60000000       1.80000000      54.93804400      178        5
Co       9.00000000      10.80000000       1.80000000      58.93319400      179        1
Fe       9.00000000      12.60000000       0.00000000      55.84500000      180        4
Cr       7.20000000      10.80000000       3.60000000      51.99610000      181        3
Co       7.20000000      12.60000000       5.40000000      58.93319400      182        1
Ni       9.00000000      10.80000000       5.40000000      58.69340000      183        2
Mn       9.00000000      12.60000000       3.60000000      54.93804400      184        5
Cr       7.20000000      10.80000000       7.20000000      51.99610000      185        3
Cr       7.20000000      12.60000000       9.00000000      51.99610000      186        3
Ni       9.00000000      10.80000000       9.00000000      58.69340000      187        2
Co       9.00000000      12.60000000       7.20000000      58.93319400      188        1
Cr       7.20000000      10.80000000      10.80000000      51.99610000      189        3
Fe       7.20000000      12.60000000      12.60000000      55.84500000      190        4
Fe       9.00000000      10.80000000      12.60000000      55.84500000      191        4
Fe       9.00000000      12.60000000      10.80000000      55.84500000      192        4
Cr      10.80000000       0.00000000       0.00000000      51.99610000      193        3
Co      10.80000000       1.80000000       1.80000000      58.93319400      194        1
Cr      12.60000000       0.00000000       1.80000000      51.99610000      195        3
Co      12.60000000       1.80000000       0.00000000      58.93319400      196        1
Ni      10.80000000       0.00000000       3.60000000      58.69340000      197        2
Mn      10.80000000       1.80000000       5.40000000      54.93804400      198        5
Mn      12.60000000       0.00000000       5.40000000      54.93804400      199        5
Mn      12.60000000       1.80000000       3.60000000      54.93804400      200        5
Co      10.80000000       0.00000000       7.20000000      58.93319400      201        1
Mn      10.80000000       1.80000000       9.00000000      54.93804400      202        5
Mn      12.60000000       0.00000000       9.00000000      54.93804400      203        5
Mn      12.60000000       1.80000000       7.20000000      54.93804400      204        5
Co      10.80000000       0.00000000      10.80000000      58.93319400      205        1
Fe      10.80000000       1.80000000      12.60000000      55.84500000      206        4
Cr      12.60000000       0.00000000      12.60000000      51.99610000      207        3
Fe      12.60000000       1.80000000      10.80000000      55.84500000      208        4
Mn      10.80000000       3.60000000       0.00000000      54.93804400      209        5
Mn      10.80000000       5.40000000       1.80000000      54.93804400      210        5
Mn      12.60000000       3.60000000       1.80000000      54.93804400      211        5
Co      12.60000000       5.40000000       0.00000000      58.93319400      212        1
Co      10.80000000       3.60000000       3.60000000      58.93319400      213        1
Cr      10.80000000       5.40000000       5.40000000      51.99610000      214        3
Co      12.60000000       3.60000000       5.40000000      58.93319400      215        1
Mn      12.60000000       5.40000000       3.60000000      54.93804400      216        5
Fe      10.80000000       3.60000000       7.20000000      55.84500000      217        4
Mn      10.80000000       5.40000000       9.00000000      54.93804400      218        5
Mn      12.60000000       3.60000000       9.00000000      54.93804400      219        5
Co      12.60000000       5.40000000       7.20000000      58.93319400      220        1
Co      10.80000000       3.60000000      10.80000000      58.93319400      221        1
Mn      10.80000000       5.40000000      12.60000000      54.93804400      222        5
Mn      12.60000000       3.60000000      12.60000000      54.93804400      223        5
Ni      12.60000000       5.40000000      10.80000000      58.69340000      224        2
Fe      10.80000000       7.20000000       0.00000000      55.84500000      225        4
Mn      10.80000000       9.00000000       1.80000000      54.93804400      226        5
Mn      12.60000000       7.20000000       1.80000000      54.93804400      227        5
Ni      12.60000000       9.00000000       0.00000000      58.69340000      228        2
Co      10.80000000       7.20000000       3.60000000      58.93319400      229        1
Ni      10.80000000       9.00000000       5.40000000      58.69340000      230        2
Ni      12.60000000       7.20000000       5.40000000      58.69340000      231        2
Mn      12.60000000       9.00000000       3.60000000      54.93804400      232        5
Cr      10.80000000       7.20000000       7.20000000      51.99610000      233        3
Cr      10.80000000       9.00000000       9.00000000      51.99610000      234        3
Cr      12.60000000       7.20000000       9.00000000      51.99610000      235        3
Ni      12.60000000       9.00000000       7.20000000      58.69340000      236        2
Ni      10.80000000       7.20000000      10.80000000      58.69340000      237        2
Co      10.80000000       9.00000000      12.60000000      58.93319400      238        1
Cr      12.60000000       7.20000000      12.60000000      51.99610000      239        3
Ni      12.60000000       9.00000000      10.80000000      58.69340000      240        2
Cr      10.80000000      10.80000000       0.00000000      51.99610000      241        3
Ni      10.80000000      12.60000000       1.80000000      58.69340000      242        2
Ni      12.60000000      10.80000000       1.80000000      58.69340000      243        2
Ni      12.60000000      12.60000000       0.00000000      58.69340000      244        2
Mn      10.80000000      10.80000000       3.60000000      54.93804400      245        5
Mn      10.80000000      12.60000000       5.40000000      54.93804400      246        5
Ni      12.60000000      10.80000000       5.40000000      58.69340000      247        2
Ni      12.60000000      12.60000000       3.60000000      58.69340000      248        2
Cr      10.80000000      10.80000000       7.20000000      51.99610000      249        3
Cr      10.80000000      12.60000000       9.00000000      51.99610000      250        3
Co      12.60000000      10.80000000       9.00000000      58.93319400      251        1
Ni      12.60000000      12.60000000       7.20000000      58.69340000      252        2
Cr      10.80000000      10.80000000      10.80000000      51.99610000      253        3
Co      10.80000000      12.60000000      12.60000000      58.93319400      254        1
Cr      12.60000000      10.80000000      12.60000000      51.99610000      255        3
Ni      12.60000000      12.60000000      10.80000000      58.69340000      256        2
