256
Lattice="14.4 0.0 0.0 0.0 14.4 0.0 0.0 0.0 14.4" Properties=species:S:1:pos:R:3:masses:R:1:id:I:1:type:I:1 comment="(written by ASE)" energy=-1021.46847744387 pbc="T T T"
Cr       0.00000000       0.00000000       0.00000000      51.99610000        1        3
Mn       0.00000000       1.80000000       1.80000000      54.93804400        2        5
Mn       1.80000000       0.00000000       1.80000000      54.93804400        3        5
Cr       1.80000000       1.80000000       0.00000000      51.99610000        4        3
Cr       0.00000000       0.00000000       3.60000000      51.99610000        5        3
Mn       0.00000000       1.80000000       5.40000000      54.93804400        6        5
Co       1.80000000       0.00000000       5.40000000      58.93319400        7        1
Cr       1.80000000       1.80000000       3.60000000      51.99610000        8        3
Fe       0.00000000       0.00000000       7.20000000      55.84500000        9        4
Fe       0.00000000       1.80000000       9.00000000      55.84500000       10        4
Fe       1.80000000       0.00000000       9.00000000      55.84500000       11        4
Fe       1.80000000       1.80000000       7.20000000      55.84500000       12        4
Ni       0.00000000       0.00000000      10.80000000      58.69340000       13        2
Ni       0.00000000       1.80000000      12.60000000      58.69340000       14        2
Fe       1.80000000       0.00000000      12.60000000      55.84500000       15        4
Cr       1.80000000       1.80000000      10.80000000      51.99610000       16        3
Cr       0.00000000       3.60000000       0.00000000      51.99610000       17        3
Mn       0.00000000       5.40000000       1.80000000      54.93804400       18        5
Mn       1.80000000       3.60000000       1.80000000      54.93804400       19        5
Cr       1.80000000       5.40000000       0.00000000      51.99610000       20        3
Mn       0.00000000       3.60000000       3.60000000      54.93804400       21        5
Cr       0.00000000       5.40000000       5.40000000      51.99610000       22        3
Fe       1.80000000       3.60000000       5.40000000      55.84500000       23        4
Mn       1.80000000       5.40000000       3.60000000      54.93804400       24        5
Ni       0.00000000       3.60000000       7.20000000      58.69340000       25        2
Co       0.00000000       5.40000000       9.00000000      58.93319400       26        1
Fe       1.80000000       3.60000000       9.00000000      55.84500000       27        4
Fe       1.80000000       5.40000000       7.20000000      55.84500000       28        4
Ni       0.00000000       3.60000000      10.80000000      58.69340000       29        2
Ni       0.00000000       5.40000000      12.60000000      58.69340000       30        2
Mn       1.80000000       3.60000000      12.60000000      54.93804400       31        5
Cr       1.80000000       5.40000000      10.80000000      51.99610000       32        3
Ni       0.00000000       7.20000000       0.00000000      58.69340000       33        2
Mn       0.00000000       9.00000000       1.80000000      54.93804400       34        5
Mn       1.80000000       7.20000000       1.80000000      54.93804400       35        5
Cr       1.80000000       9.00000000       0.00000000      51.99610000       36        3
Cr       0.00000000       7.20000000       3.60000000      51.99610000       37        3
Mn       0.00000000       9.00000000       5.40000000      54.93804400       38        5
Co       1.80000000       7.20000000       5.40000000      58.93319400       39        1
Mn       1.80000000       9.00000000       3.60000000      54.93804400       40        5
Mn       0.00000000       7.20000000       7.20000000      54.93804400       41        5
Co       0.00000000       9.00000000       9.00000000      58.93319400       42        1
Co       1.80000000       7.20000000       9.00000000      58.93319400       43        1
Co       1.80000000       9.00000000       7.20000000      58.93319400       44        1
Co       0.00000000       7.20000000      10.80000000      58.93319400       45        1
Fe       0.00000000       9.00000000      12.60000000      55.84500000       46        4
Ni       1.80000000       7.20000000      12.60000000      58.69340000       47        2
Co       1.80000000       9.00000000      10.80000000      58.93319400       48        1
Mn       0.00000000      10.80000000       0.00000000      54.93804400       49        5
Mn       0.00000000      12.60000000       1.80000000      54.93804400       50        5
Mn       1.80000000      10.80000000       1.80000000      54.93804400       51        5
Mn       1.80000000      12.60000000       0.00000000      54.93804400       52        5
Cr       0.00000000      10.80000000       3.60000000      51.99610000       53        3
Cr       0.00000000      12.60000000       5.40000000      51.99610000       54        3
Co       1.80000000      10.80000000       5.40000000      58.93319400       55        1
Mn       1.80000000      12.60000000       3.60000000      54.93804400       56        5
Mn       0.00000000      10.80000000       7.20000000      54.93804400       57        5
Ni       0.00000000      12.60000000       9.00000000      58.69340000       58        2
Co       1.80000000      10.80000000       9.00000000      58.93319400       59        1
Co       1.80000000      12.60000000       7.20000000      58.93319400       60        1
Co       0.00000000      10.80000000      10.80000000      58.93319400       61        1
Ni       0.00000000      12.60000000      12.60000000      58.69340000       62        2
Co       1.80000000      10.80000000      12.60000000      58.93319400       63        1
Fe       1.80000000      12.60000000      10.80000000      55.84500000       64        4
Mn       3.60000000       0.00000000       0.00000000      54.93804400       65        5
Cr       3.60000000       1.80000000       1.80000000      51.99610000       66        3
Mn       5.40000000       0.00000000       1.80000000      54.93804400       67        5
Cr       5.40000000       1.80000000       0.00000000      51.99610000       68        3
Mn       3.60000000       0.00000000       3.60000000      54.93804400       69        5
Co       3.60000000       1.80000000       5.40000000      58.93319400       70        1
Co       5.40000000       0.00000000       5.40000000      58.93319400       71        1
Mn       5.40000000       1.80000000       3.60000000      54.93804400       72        5
Co       3.60000000       0.00000000       7.20000000      58.93319400       73        1
Fe       3.60000000       1.80000000       9.00000000      55.84500000       74        4
Fe       5.40000000       0.00000000       9.00000000      55.84500000       75        4
Ni       5.40000000       1.80000000       7.20000000      58.69340000       76        2
Fe       3.60000000       0.00000000      10.80000000      55.84500000       77        4
Ni       3.60000000       1.80000000      12.60000000      58.69340000       78        2
Fe       5.40000000       0.00000000      12.60000000      55.84500000       79        4
Ni       5.40000000       1.80000000      10.80000000      58.69340000       80        2
Fe       3.60000000       3.60000000       0.00000000      55.84500000       81        4
Cr       3.60000000       5.40000000       1.80000000      51.99610000       82        3
Ni       5.40000000       3.60000000       1.80000000      58.69340000       83        2
Ni       5.40000000       5.40000000       0.00000000      58.69340000       84        2
Mn       3.60000000       3.60000000       3.60000000      54.93804400       85        5
Cr       3.60000000       5.40000000       5.40000000      51.99610000       86        3
Cr       5.40000000       3.60000000       5.40000000      51.99610000       87        3
Mn       5.40000000       5.40000000       3.60000000      54.93804400       88        5
Ni       3.60000000       3.60000000       7.20000000      58.69340000       89        2
Ni       3.60000000       5.40000000       9.00000000      58.69340000       90        2
Fe       5.40000000       3.60000000       9.00000000      55.84500000       91        4
Mn       5.40000000       5.40000000       7.20000000      54.93804400       92        5
Cr       3.60000000       3.60000000      10.80000000      51.99610000       93        3
Fe       3.60000000       5.40000000      12.60000000      55.84500000       94        4
Fe       5.40000000       3.60000000      12.60000000      55.84500000       95        4
Ni       5.40000000       5.40000000      10.80000000      58.69340000       96        2
Co       3.60000000       7.20000000       0.00000000      58.93319400       97        1
Co       3.60000000       9.00000000       1.80000000      58.93319400       98        1
Ni       5.40000000       7.20000000       1.80000000      58.69340000       99        2
Co       5.40000000       9.00000000       0.00000000      58.93319400      100        1
Co       3.60000000       7.20000000       3.60000000      58.93319400      101        1
Co       3.60000000       9.00000000       5.40000000      58.93319400      102        1
Ni       5.40000000       7.20000000       5.40000000      58.69340000      103        2
Co       5.40000000       9.00000000       3.60000000      58.93319400      104        1
Co       3.60000000       7.20000000       7.20000000      58.93319400      105        1
Co       3.60000000       9.00000000       9.00000000      58.93319400      106        1
Fe       5.40000000       7.20000000       9.00000000      55.84500000      107        4
Co       5.40000000       9.00000000       7.20000000      58.93319400      108        1
Co       3.60000000       7.20000000      10.80000000      58.93319400      109        1
Co       3.60000000       9.00000000      12.60000000      58.93319400      110        1
Fe       5.40000000       7.20000000      12.60000000      55.84500000      111        4
Co       5.40000000       9.00000000      10.80000000      58.93319400      112        1
Co       3.60000000      10.80000000       0.00000000      58.93319400      113        1
Cr       3.60000000      12.60000000       1.80000000      51.99610000      114        3
Co       5.40000000      10.80000000       1.80000000      58.93319400      115        1
Co       5.40000000      12.60000000       0.00000000      58.93319400      116        1
Cr       3.60000000      10.80000000       3.60000000      51.99610000      117        3
Co       3.60000000      12.60000000       5.40000000      58.93319400      118        1
Ni       5.40000000      10.80000000       5.40000000      58.69340000      119        2
Mn       5.40000000      12.60000000       3.60000000      54.93804400      120        5
Co       3.60000000      10.80000000       7.20000000      58.93319400      121        1
Ni       3.60000000      12.60000000       9.00000000      58.69340000      122        2
Co       5.40000000      10.80000000       9.00000000      58.93319400      123        1
Co       5.40000000      12.60000000       7.20000000      58.93319400      124        1
Co       3.60000000      10.80000000      10.80000000      58.93319400      125        1
Ni       3.60000000      12.60000000      12.60000000      58.69340000      126        2
Co       5.40000000      10.80000000      12.60000000      58.93319400      127        1
Co       5.40000000      12.60000000      10.80000000      58.93319400      128        1
Ni       7.20000000       0.00000000       0.00000000      58.69340000      129        2
Mn       7.20000000       1.80000000       1.80000000      54.93804400      130        5
Cr       9.00000000       0.00000000       1.80000000      51.99610000      131        3
Fe       9.00000000       1.80000000       0.00000000      55.84500000      132        4
Cr       7.20000000       0.00000000       3.60000000      51.99610000      133        3
Mn       7.20000000       1.80000000       5.40000000      54.93804400      134        5
Cr       9.00000000       0.00000000       5.40000000      51.99610000      135        3
Mn       9.00000000       1.80000000       3.60000000      54.93804400      136        5
Co       7.20000000       0.00000000       7.20000000      58.93319400      137        1
Ni       7.20000000       1.80000000       9.00000000      58.69340000      138        2
Ni       9.00000000       0.00000000       9.00000000      58.69340000      139        2
Mn       9.00000000       1.80000000       7.20000000      54.93804400      140        5
Fe       7.20000000       0.00000000      10.80000000      55.84500000      141        4
Fe       7.20000000       1.80000000      12.60000000      55.84500000      142        4
Ni       9.00000000       0.00000000      12.60000000      58.69340000      143        2
Fe       9.00000000       1.80000000      10.80000000      55.84500000      144        4
Fe       7.20000000       3.60000000       0.00000000      55.84500000      145        4
Fe       7.20000000       5.40000000       1.80000000      55.84500000      146        4
Ni       9.00000000       3.60000000       1.80000000      58.69340000      147        2
Fe       9.00000000       5.40000000       0.00000000      55.84500000      148        4
Cr       7.20000000       3.60000000       3.60000000      51.99610000      149        3
Cr       7.20000000       5.40000000       5.40000000      51.99610000      150        3
Mn       9.00000000       3.60000000       5.40000000      54.93804400      151        5
Fe       9.00000000       5.40000000       3.60000000      55.84500000      152        4
Mn       7.20000000       3.60000000       7.20000000      54.93804400      153        5
Cr       7.20000000       5.40000000       9.00000000      51.99610000      154        3
Ni       9.00000000       3.60000000       9.00000000      58.69340000      155        2
Mn       9.00000000       5.40000000       7.20000000      54.93804400      156        5
Fe       7.20000000       3.60000000      10.80000000      55.84500000      157        4
Ni       7.20000000       5.40000000      12.60000000      58.69340000      158        2
Ni       9.00000000       3.60000000      12.60000000      58.69340000      159        2
Fe       9.00000000       5.40000000      10.80000000      55.84500000      160        4
Cr       7.20000000       7.20000000       0.00000000      51.99610000      161        3
Co       7.20000000       9.00000000       1.80000000      58.93319400      162        1
Fe       9.00000000       7.20000000       1.80000000      55.84500000      163        4
Co       9.00000000       9.00000000       0.00000000      58.93319400      164        1
Fe       7.20000000       7.20000000       3.60000000      55.84500000      165        4
Fe       7.20000000       9.00000000       5.40000000      55.84500000      166        4
Ni       9.00000000       7.20000000       5.40000000      58.69340000      167        2
Ni       9.00000000       9.00000000       3.60000000      58.69340000      168        2
Mn       7.20000000       7.20000000       7.20000000      54.93804400      169        5
Co       7.20000000       9.00000000       9.00000000      58.93319400      170        1
Mn       9.00000000       7.20000000       9.00000000      54.93804400      171        5
Mn       9.00000000       9.00000000       7.20000000      54.93804400      172        5
Cr       7.20000000       7.20000000      10.80000000      51.99610000      173        3
Ni       7.20000000       9.00000000      12.60000000      58.69340000      174        2
Fe       9.00000000       7.20000000      12.60000000      55.84500000      175        4
Mn       9.00000000       9.00000000      10.80000000      54.93804400      176        5
Co       7.20000000      10.80000000       0.00000000      58.93319400      177        1
Co       7.20000000      12.60000000       1.80000000      58.93319400      178        1
Co       9.00000000      10.80000000       1.80000000      58.93319400      179        1
Co       9.00000000      12.60000000       0.00000000      58.93319400      180        1
Cr       7.20000000      10.80000000       3.60000000      51.99610000      181        3
Ni       7.20000000      12.60000000       5.40000000      58.69340000      182        2
Mn       9.00000000      10.80000000       5.40000000      54.93804400      183        5
Mn       9.00000000      12.60000000       3.60000000      54.93804400      184        5
Cr       7.20000000      10.80000000       7.20000000      51.99610000      185        3
Ni       7.20000000      12.60000000       9.00000000      58.69340000      186        2
Mn       9.00000000      10.80000000       9.00000000      54.93804400      187        5
Mn       9.00000000      12.60000000       7.20000000      54.93804400      188        5
Ni       7.20000000      10.80000000      10.80000000      58.69340000      189        2
Co       7.20000000      12.60000000      12.60000000      58.93319400      190        1
Cr       9.00000000      10.80000000      12.60000000      51.99610000      191        3
Fe       9.00000000      12.60000000      10.80000000      55.84500000      192        4
Fe      10.80000000       0.00000000       0.00000000      55.84500000      193        4
Cr      10.80000000       1.80000000       1.80000000      51.99610000      194        3
Mn      12.60000000       0.00000000       1.80000000      54.93804400      195        5
Mn      12.60000000       1.80000000       0.00000000      54.93804400      196        5
Mn      10.80000000       0.00000000       3.60000000      54.93804400      197        5
Mn      10.80000000       1.80000000       5.40000000      54.93804400      198        5
Mn      12.60000000       0.00000000       5.40000000      54.93804400      199        5
Cr      12.60000000       1.80000000       3.60000000      51.99610000      200        3
Mn      10.80000000       0.00000000       7.20000000      54.93804400      201        5
Cr      10.80000000       1.80000000       9.00000000      51.99610000      202        3
Fe      12.60000000       0.00000000       9.00000000      55.84500000      203        4
Cr      12.60000000       1.80000000       7.20000000      51.99610000      204        3
Fe      10.80000000       0.00000000      10.80000000      55.84500000      205        4
Fe      10.80000000       1.80000000      12.60000000      55.84500000      206        4
Fe      12.60000000       0.00000000      12.60000000      55.84500000      207        4
Ni      12.60000000       1.80000000      10.80000000      58.69340000      208        2
Ni      10.80000000       3.60000000       0.00000000      58.69340000      209        2
Fe      10.80000000       5.40000000       1.80000000      55.84500000      210        4
Mn      12.60000000       3.60000000       1.80000000      54.93804400      211        5
Fe      12.60000000       5.40000000       0.00000000      55.84500000      212        4
Mn      10.80000000       3.60000000       3.60000000      54.93804400      213        5
Cr      10.80000000       5.40000000       5.40000000      51.99610000      214        3
Cr      12.60000000       3.60000000       5.40000000      51.99610000      215        3
Mn      12.60000000       5.40000000       3.60000000      54.93804400      216        5
Mn      10.80000000       3.60000000       7.20000000      54.93804400      217        5
Cr      10.80000000       5.40000000       9.00000000      51.99610000      218        3
Ni      12.60000000       3.60000000       9.00000000      58.69340000      219        2
Mn      12.60000000       5.40000000       7.20000000      54.93804400      220        5
Fe      10.80000000       3.60000000      10.80000000      55.84500000      221        4
Fe      10.80000000       5.40000000      12.60000000      55.84500000      222        4
Fe      12.60000000       3.60000000      12.60000000      55.84500000      223        4
Fe      12.60000000       5.40000000      10.80000000      55.84500000      224        4
Ni      10.80000000       7.20000000       0.00000000      58.69340000      225        2
Co      10.80000000       9.00000000       1.80000000      58.93319400      226        1
Cr      12.60000000       7.20000000       1.80000000      51.99610000      227        3
Fe      12.60000000       9.00000000       0.00000000      55.84500000      228        4
Fe      10.80000000       7.20000000       3.60000000      55.84500000      229        4
Cr      10.80000000       9.00000000       5.40000000      51.99610000      230        3
Mn      12.60000000       7.20000000       5.40000000      54.93804400      231        5
Mn      12.60000000       9.00000000       3.60000000      54.93804400      232        5
Mn      10.80000000       7.20000000       7.20000000      54.93804400      233        5
Cr      10.80000000       9.00000000       9.00000000      51.99610000      234        3
Ni      12.60000000       7.20000000       9.00000000      58.69340000      235        2
Mn      12.60000000       9.00000000       7.20000000      54.93804400      236        5
Ni      10.80000000       7.20000000      10.80000000      58.69340000      237        2
Fe      10.80000000       9.00000000      12.60000000      55.84500000      238        4
Fe      12.60000000       7.20000000      12.60000000      55.84500000      239        4
Cr      12.60000000       9.00000000      10.80000000      51.99610000      240        3
Co      10.80000000      10.80000000       0.00000000      58.93319400      241        1
Ni      10.80000000      12.60000000       1.80000000      58.69340000      242        2
Cr      12.60000000      10.80000000       1.80000000      51.99610000      243        3
Fe      12.60000000      12.60000000       0.00000000      55.84500000      244        4
Cr      10.80000000      10.80000000       3.60000000      51.99610000      245        3
Mn      10.80000000      12.60000000       5.40000000      54.93804400      246        5
Mn      12.60000000      10.80000000       5.40000000      54.93804400      247        5
Mn      12.60000000      12.60000000       3.60000000      54.93804400      248        5
Mn      10.80000000      10.80000000       7.20000000      54.93804400      249        5
Cr      10.80000000      12.60000000       9.00000000      51.99610000      250        3
Ni      12.60000000      10.80000000       9.00000000      58.69340000      251        2
Cr      12.60000000      12.60000000       7.20000000      51.99610000      252        3
Ni      10.80000000      10.80000000      10.80000000      58.69340000      253        2
Fe      10.80000000      12.60000000      12.60000000      55.84500000      254        4
Ni      12.60000000      10.80000000      12.60000000      58.69340000      255        2
Fe      12.60000000      12.60000000      10.80000000      55.84500000      256        4
