256
Lattice="14.4 0.0 0.0 0.0 14.4 0.0 0.0 0.0 14.4" Properties=species:S:1:pos:R:3:masses:R:1:id:I:1:type:I:1 comment="(written by ASE)" energy=-1020.2029176053 pbc="T T T"
Co       0.00000000       0.00000000       0.00000000      58.93319400        1        1
Co       0.00000000       1.80000000       1.80000000      58.93319400        2        1
Fe       1.80000000       0.00000000       1.80000000      55.84500000        3        4
Cr       1.80000000       1.80000000       0.00000000      51.99610000        4        3
Mn       0.00000000       0.00000000       3.60000000      54.93804400        5        5
Ni       0.00000000       1.80000000       5.40000000      58.69340000        6        2
Mn       1.80000000       0.00000000       5.40000000      54.93804400        7        5
Fe       1.80000000       1.80000000       3.60000000      55.84500000        8        4
Mn       0.00000000       0.00000000       7.20000000      54.93804400        9        5
Ni       0.00000000       1.80000000       9.00000000      58.69340000       10        2
Co       1.80000000       0.00000000       9.00000000      58.93319400       11        1
Ni       1.80000000       1.80000000       7.20000000      58.69340000       12        2
Mn       0.00000000       0.00000000      10.80000000      54.93804400       13        5
Co       0.00000000       1.80000000      12.60000000      58.93319400       14        1
Co       1.80000000       0.00000000      12.60000000      58.93319400       15        1
Co       1.80000000       1.80000000      10.80000000      58.93319400       16        1
Cr       0.00000000       3.60000000       0.00000000      51.99610000       17        3
Co       0.00000000       5.40000000       1.80000000      58.93319400       18        1
Cr       1.80000000       3.60000000       1.80000000      51.99610000       19        3
Mn       1.80000000       5.40000000       0.00000000      54.93804400       20        5
Co       0.00000000       3.60000000       3.60000000      58.93319400       21        1
Co       0.00000000       5.40000000       5.40000000      58.93319400       22        1
Mn       1.80000000       3.60000000       5.40000000      54.93804400       23        5
Cr       1.80000000       5.40000000       3.60000000      51.99610000       24        3
Ni       0.00000000       3.60000000       7.20000000      58.69340000       25        2
Ni       0.00000000       5.40000000       9.00000000      58.69340000       26        2
Ni       1.80000000       3.60000000       9.00000000      58.69340000       27        2
Co       1.80000000       5.40000000       7.20000000      58.93319400       28        1
Ni       0.00000000       3.60000000      10.80000000      58.69340000       29        2
Co       0.00000000       5.40000000      12.60000000      58.93319400       30        1
Co       1.80000000       3.60000000      12.60000000      58.93319400       31        1
Ni       1.80000000       5.40000000      10.80000000      58.69340000       32        2
Mn       0.00000000       7.20000000       0.00000000      54.93804400       33        5
Fe       0.00000000       9.00000000       1.80000000      55.84500000       34        4
Co       1.80000000       7.20000000       1.80000000      58.93319400       35        1
Ni       1.80000000       9.00000000       0.00000000      58.69340000       36        2
Cr       0.00000000       7.20000000       3.60000000      51.99610000       37        3
Cr       0.00000000       9.00000000       5.40000000      51.99610000       38        3
Cr       1.80000000       7.20000000       5.40000000      51.99610000       39        3
Cr       1.80000000       9.00000000       3.60000000      51.99610000       40        3
Co       0.00000000       7.20000000       7.20000000      58.93319400       41        1
Co       0.00000000       9.00000000       9.00000000      58.93319400       42        1
Co       1.80000000       7.20000000       9.00000000      58.93319400       43        1
Cr       1.80000000       9.00000000       7.20000000      51.99610000       44        3
Ni       0.00000000       7.20000000      10.80000000      58.69340000       45        2
Ni       0.00000000       9.00000000      12.60000000      58.69340000       46        2
Ni       1.80000000       7.20000000      12.60000000      58.69340000       47        2
Co       1.80000000       9.00000000      10.80000000      58.93319400       48        1
Ni       0.00000000      10.80000000       0.00000000      58.69340000       49        2
Mn       0.00000000      12.60000000       1.80000000      54.93804400       50        5
Mn       1.80000000      10.80000000       1.80000000      54.93804400       51        5
Co       1.80000000      12.60000000       0.00000000      58.93319400       52        1
Mn       0.00000000      10.80000000       3.60000000      54.93804400       53        5
Ni       0.00000000      12.60000000       5.40000000      58.69340000       54        2
Mn       1.80000000      10.80000000       5.40000000      54.93804400       55        5
Fe       1.80000000      12.60000000       3.60000000      55.84500000       56        4
Mn       0.00000000      10.80000000       7.20000000      54.93804400       57        5
Ni       0.00000000      12.60000000       9.00000000      58.69340000       58        2
Cr       1.80000000      10.80000000       9.00000000      51.99610000       59        3
Mn       1.80000000      12.60000000       7.20000000      54.93804400       60        5
Mn       0.00000000      10.80000000      10.80000000      54.93804400       61        5
Co       0.00000000      12.60000000      12.60000000      58.93319400       62        1
Co       1.80000000      10.80000000      12.60000000      58.93319400       63        1
Cr       1.80000000      12.60000000      10.80000000      51.99610000       64        3
Co       3.60000000       0.00000000       0.00000000      58.93319400       65        1
Mn       3.60000000       1.80000000       1.80000000      54.93804400       66        5
Ni       5.40000000       0.00000000       1.80000000      58.69340000       67        2
Co       5.40000000       1.80000000       0.00000000      58.93319400       68        1
Mn       3.60000000       0.00000000       3.60000000      54.93804400       69        5
Mn       3.60000000       1.80000000       5.40000000      54.93804400       70        5
Fe       5.40000000       0.00000000       5.40000000      55.84500000       71        4
Mn       5.40000000       1.80000000       3.60000000      54.93804400       72        5
Co       3.60000000       0.00000000       7.20000000      58.93319400       73        1
Co       3.60000000       1.80000000       9.00000000      58.93319400       74        1
Cr       5.40000000       0.00000000       9.00000000      51.99610000       75        3
Cr       5.40000000       1.80000000       7.20000000      51.99610000       76        3
Co       3.60000000       0.00000000      10.80000000      58.93319400       77        1
Co       3.60000000       1.80000000      12.60000000      58.93319400       78        1
Co       5.40000000       0.00000000      12.60000000      58.93319400       79        1
Co       5.40000000       1.80000000      10.80000000      58.93319400       80        1
Fe       3.60000000       3.60000000       0.00000000      55.84500000       81        4
Fe       3.60000000       5.40000000       1.80000000      55.84500000       82        4
Fe       5.40000000       3.60000000       1.80000000      55.84500000       83        4
Mn       5.40000000       5.40000000       0.00000000      54.93804400       84        5
Fe       3.60000000       3.60000000       3.60000000      55.84500000       85        4
Fe       3.60000000       5.40000000       5.40000000      55.84500000       86        4
Fe       5.40000000       3.60000000       5.40000000      55.84500000       87        4
Fe       5.40000000       5.40000000       3.60000000      55.84500000       88        4
Mn       3.60000000       3.60000000       7.20000000      54.93804400       89        5
Ni       3.60000000       5.40000000       9.00000000      58.69340000       90        2
Cr       5.40000000       3.60000000       9.00000000      51.99610000       91        3
Fe       5.40000000       5.40000000       7.20000000      55.84500000       92        4
Mn       3.60000000       3.60000000      10.80000000      54.93804400       93        5
Ni       3.60000000       5.40000000      12.60000000      58.69340000       94        2
Mn       5.40000000       3.60000000      12.60000000      54.93804400       95        5
Mn       5.40000000       5.40000000      10.80000000      54.93804400       96        5
Mn       3.60000000       7.20000000       0.00000000      54.93804400       97        5
Cr       3.60000000       9.00000000       1.80000000      51.99610000       98        3
Cr       5.40000000       7.20000000       1.80000000      51.99610000       99        3
Cr       5.40000000       9.00000000       0.00000000      51.99610000      100        3
Cr       3.60000000       7.20000000       3.60000000      51.99610000      101        3
Cr       3.60000000       9.00000000       5.40000000      51.99610000      102        3
Fe       5.40000000       7.20000000       5.40000000      55.84500000      103        4
Cr       5.40000000       9.00000000       3.60000000      51.99610000      104        3
Fe       3.60000000       7.20000000       7.20000000      55.84500000      105        4
Cr       3.60000000       9.00000000       9.00000000      51.99610000      106        3
Mn       5.40000000       7.20000000       9.00000000      54.93804400      107        5
Fe       5.40000000       9.00000000       7.20000000      55.84500000      108        4
Ni       3.60000000       7.20000000      10.80000000      58.69340000      109        2
Co       3.60000000       9.00000000      12.60000000      58.93319400      110        1
Mn       5.40000000       7.20000000      12.60000000      54.93804400      111        5
Mn       5.40000000       9.00000000      10.80000000      54.93804400      112        5
Cr       3.60000000      10.80000000       0.00000000      51.99610000      113        3
Co       3.60000000      12.60000000       1.80000000      58.93319400      114        1
Cr       5.40000000      10.80000000       1.80000000      51.99610000      115        3
Cr       5.40000000      12.60000000       0.00000000      51.99610000      116        3
Cr       3.60000000      10.80000000       3.60000000      51.99610000      117        3
Fe       3.60000000      12.60000000       5.40000000      55.84500000      118        4
Fe       5.40000000      10.80000000       5.40000000      55.84500000      119        4
Fe       5.40000000      12.60000000       3.60000000      55.84500000      120        4
Cr       3.60000000      10.80000000       7.20000000      51.99610000      121        3
Cr       3.60000000      12.60000000       9.00000000      51.99610000      122        3
Cr       5.40000000      10.80000000       9.00000000      51.99610000      123        3
Cr       5.40000000      12.60000000       7.20000000      51.99610000      124        3
Cr       3.60000000      10.80000000      10.80000000      51.99610000      125        3
Cr       3.60000000      12.60000000      12.60000000      51.99610000      126        3
Cr       5.40000000      10.80000000      12.60000000      51.99610000      127        3
Cr       5.40000000      12.60000000      10.80000000      51.99610000      128        3
Co       7.20000000       0.00000000       0.00000000      58.93319400      129        1
Mn       7.20000000       1.80000000       1.80000000      54.93804400      130        5
Co       9.00000000       0.00000000       1.80000000      58.93319400      131        1
Fe       9.00000000       1.80000000       0.00000000      55.84500000      132        4
Mn       7.20000000       0.00000000       3.60000000      54.93804400      133        5
Cr       7.20000000       1.80000000       5.40000000      51.99610000      134        3
Co       9.00000000       0.00000000       5.40000000      58.93319400      135        1
Co       9.00000000       1.80000000       3.60000000      58.93319400      136        1
Co       7.20000000       0.00000000       7.20000000      58.93319400      137        1
Fe       7.20000000       1.80000000       9.00000000      55.84500000      138        4
Ni       9.00000000       0.00000000       9.00000000      58.69340000      139        2
Co       9.00000000       1.80000000       7.20000000      58.93319400      140        1
Mn       7.20000000       0.00000000      10.80000000      54.93804400      141        5
Mn       7.20000000       1.80000000      12.60000000      54.93804400      142        5
Fe       9.00000000       0.00000000      12.60000000      55.84500000      143        4
Fe       9.00000000       1.80000000      10.80000000      55.84500000      144        4
Fe       7.20000000       3.60000000       0.00000000      55.84500000      145        4
Fe       7.20000000       5.40000000       1.80000000      55.84500000      146        4
Fe       9.00000000       3.60000000       1.80000000      55.84500000      147        4
Mn       9.00000000       5.40000000       0.00000000      54.93804400      148        5
Co       7.20000000       3.60000000       3.60000000      58.93319400      149        1
Cr       7.20000000       5.40000000       5.40000000      51.99610000      150        3
Cr       9.00000000       3.60000000       5.40000000      51.99610000      151        3
Cr       9.00000000       5.40000000       3.60000000      51.99610000      152        3
Cr       7.20000000       3.60000000       7.20000000      51.99610000      153        3
Fe       7.20000000       5.40000000       9.00000000      55.84500000      154        4
Fe       9.00000000       3.60000000       9.00000000      55.84500000      155        4
Cr       9.00000000       5.40000000       7.20000000      51.99610000      156        3
Fe       7.20000000       3.60000000      10.80000000      55.84500000      157        4
Fe       7.20000000       5.40000000      12.60000000      55.84500000      158        4
Mn       9.00000000       3.60000000      12.60000000      54.93804400      159        5
Fe       9.00000000       5.40000000      10.80000000      55.84500000      160        4
Fe       7.20000000       7.20000000       0.00000000      55.84500000      161        4
Cr       7.20000000       9.00000000       1.80000000      51.99610000      162        3
Fe       9.00000000       7.20000000       1.80000000      55.84500000      163        4
Fe       9.00000000       9.00000000       0.00000000      55.84500000      164        4
Cr       7.20000000       7.20000000       3.60000000      51.99610000      165        3
Fe       7.20000000       9.00000000       5.40000000      55.84500000      166        4
Cr       9.00000000       7.20000000       5.40000000      51.99610000      167        3
Cr       9.00000000       9.00000000       3.60000000      51.99610000      168        3
Fe       7.20000000       7.20000000       7.20000000      55.84500000      169        4
Fe       7.20000000       9.00000000       9.00000000      55.84500000      170        4
Fe       9.00000000       7.20000000       9.00000000      55.84500000      171        4
Fe       9.00000000       9.00000000       7.20000000      55.84500000      172        4
Mn       7.20000000       7.20000000      10.80000000      54.93804400      173        5
Fe       7.20000000       9.00000000      12.60000000      55.84500000      174        4
Fe       9.00000000       7.20000000      12.60000000      55.84500000      175        4
Mn       9.00000000       9.00000000      10.80000000      54.93804400      176        5
Cr       7.20000000      10.80000000       0.00000000      51.99610000      177        3
Co       7.20000000      12.60000000       1.80000000      58.93319400      178        1
Mn       9.00000000      10.80000000       1.80000000      54.93804400      179        5
Co       9.00000000      12.60000000       0.00000000      58.93319400      180        1
Cr       7.20000000      10.80000000       3.60000000      51.99610000      181        3
Mn       7.20000000      12.60000000       5.40000000      54.93804400      182        5
Mn       9.00000000      10.80000000       5.40000000      54.93804400      183        5
Ni       9.00000000      12.60000000       3.60000000      58.69340000      184        2
Fe       7.20000000      10.80000000       7.20000000      55.84500000      185        4
Fe       7.20000000      12.60000000       9.00000000      55.84500000      186        4
Mn       9.00000000      10.80000000       9.00000000      54.93804400      187        5
Ni       9.00000000      12.60000000       7.20000000      58.69340000      188        2
Fe       7.20000000      10.80000000      10.80000000      55.84500000      189        4
Co       7.20000000      12.60000000      12.60000000      58.93319400      190        1
Mn       9.00000000      10.80000000      12.60000000      54.93804400      191        5
Mn       9.00000000      12.60000000      10.80000000      54.93804400      192        5
Ni      10.80000000       0.00000000       0.00000000      58.69340000      193        2
Co      10.80000000       1.80000000       1.80000000      58.93319400      194        1
Co      12.60000000       0.00000000       1.80000000      58.93319400      195        1
Mn      12.60000000       1.80000000       0.00000000      54.93804400      196        5
Co      10.80000000       0.00000000       3.60000000      58.93319400      197        1
Co      10.80000000       1.80000000       5.40000000      58.93319400      198        1
Ni      12.60000000       0.00000000       5.40000000      58.69340000      199        2
Co      12.60000000       1.80000000       3.60000000      58.93319400      200        1
Ni      10.80000000       0.00000000       7.20000000      58.69340000      201        2
Mn      10.80000000       1.80000000       9.00000000      54.93804400      202        5
Ni      12.60000000       0.00000000       9.00000000      58.69340000      203        2
Ni      12.60000000       1.80000000       7.20000000      58.69340000      204        2
Mn      10.80000000       0.00000000      10.80000000      54.93804400      205        5
Mn      10.80000000       1.80000000      12.60000000      54.93804400      206        5
Ni      12.60000000       0.00000000      12.60000000      58.69340000      207        2
Ni      12.60000000       1.80000000      10.80000000      58.69340000      208        2
Mn      10.80000000       3.60000000       0.00000000      54.93804400      209        5
Fe      10.80000000       5.40000000       1.80000000      55.84500000      210        4
Cr      12.60000000       3.60000000       1.80000000      51.99610000      211        3
Fe      12.60000000       5.40000000       0.00000000      55.84500000      212        4
Co      10.80000000       3.60000000       3.60000000      58.93319400      213        1
Co      10.80000000       5.40000000       5.40000000      58.93319400      214        1
Ni      12.60000000       3.60000000       5.40000000      58.69340000      215        2
Co      12.60000000       5.40000000       3.60000000      58.93319400      216        1
Mn      10.80000000       3.60000000       7.20000000      54.93804400      217        5
Mn      10.80000000       5.40000000       9.00000000      54.93804400      218        5
Ni      12.60000000       3.60000000       9.00000000      58.69340000      219        2
Ni      12.60000000       5.40000000       7.20000000      58.69340000      220        2
Fe      10.80000000       3.60000000      10.80000000      55.84500000      221        4
Mn      10.80000000       5.40000000      12.60000000      54.93804400      222        5
Mn      12.60000000       3.60000000      12.60000000      54.93804400      223        5
Ni      12.60000000       5.40000000      10.80000000      58.69340000      224        2
Fe      10.80000000       7.20000000       0.00000000      55.84500000      225        4
Mn      10.80000000       9.00000000       1.80000000      54.93804400      226        5
Fe      12.60000000       7.20000000       1.80000000      55.84500000      227        4
Mn      12.60000000       9.00000000       0.00000000      54.93804400      228        5
Cr      10.80000000       7.20000000       3.60000000      51.99610000      229        3
Fe      10.80000000       9.00000000       5.40000000      55.84500000      230        4
Co      12.60000000       7.20000000       5.40000000      58.93319400      231        1
Fe      12.60000000       9.00000000       3.60000000      55.84500000      232        4
Fe      10.80000000       7.20000000       7.20000000      55.84500000      233        4
Mn      10.80000000       9.00000000       9.00000000      54.93804400      234        5
Mn      12.60000000       7.20000000       9.00000000      54.93804400      235        5
Ni      12.60000000       9.00000000       7.20000000      58.69340000      236        2
Fe      10.80000000       7.20000000      10.80000000      55.84500000      237        4
Mn      10.80000000       9.00000000      12.60000000      54.93804400      238        5
Mn      12.60000000       7.20000000      12.60000000      54.93804400      239        5
Ni      12.60000000       9.00000000      10.80000000      58.69340000      240        2
Ni      10.80000000      10.80000000       0.00000000      58.69340000      241        2
Ni      10.80000000      12.60000000       1.80000000      58.69340000      242        2
Mn      12.60000000      10.80000000       1.80000000      54.93804400      243        5
Mn      12.60000000      12.60000000       0.00000000      54.93804400      244        5
Mn      10.80000000      10.80000000       3.60000000      54.93804400      245        5
Ni      10.80000000      12.60000000       5.40000000      58.69340000      246        2
Mn      12.60000000      10.80000000       5.40000000      54.93804400      247        5
Ni      12.60000000      12.60000000       3.60000000      58.69340000      248        2
Mn      10.80000000      10.80000000       7.20000000      54.93804400      249        5
Ni      10.80000000      12.60000000       9.00000000      58.69340000      250        2
Ni      12.60000000      10.80000000       9.00000000      58.69340000      251        2
Ni      12.60000000      12.60000000       7.20000000      58.69340000      252        2
Ni      10.80000000      10.80000000      10.80000000      58.69340000      253        2
Ni      10.80000000      12.60000000      12.60000000      58.69340000      254        2
Ni      12.60000000      10.80000000      12.60000000      58.69340000      255        2
Ni      12.60000000      12.60000000      10.80000000      58.69340000      256        2
