256
Lattice="14.4 0.0 0.0 0.0 14.4 0.0 0.0 0.0 14.4" Properties=species:S:1:pos:R:3:masses:R:1:id:I:1:type:I:1 comment="(written by ASE)" energy=-1025.06782819016 pbc="T T T"
Ni       0.00000000       0.00000000       0.00000000      58.69340000        1        2
Mn       0.00000000       1.80000000       1.80000000      54.93804400        2        5
Mn       1.80000000       0.00000000       1.80000000      54.93804400        3        5
Ni       1.80000000       1.80000000       0.00000000      58.69340000        4        2
Ni       0.00000000       0.00000000       3.60000000      58.69340000        5        2
Cr       0.00000000       1.80000000       5.40000000      51.99610000        6        3
Mn       1.80000000       0.00000000       5.40000000      54.93804400        7        5
Co       1.80000000       1.80000000       3.60000000      58.93319400        8        1
Ni       0.00000000       0.00000000       7.20000000      58.69340000        9        2
Mn       0.00000000       1.80000000       9.00000000      54.93804400       10        5
Mn       1.80000000       0.00000000       9.00000000      54.93804400       11        5
Co       1.80000000       1.80000000       7.20000000      58.93319400       12        1
Co       0.00000000       0.00000000      10.80000000      58.93319400       13        1
Mn       0.00000000       1.80000000      12.60000000      54.93804400       14        5
Mn       1.80000000       0.00000000      12.60000000      54.93804400       15        5
Co       1.80000000       1.80000000      10.80000000      58.93319400       16        1
Co       0.00000000       3.60000000       0.00000000      58.93319400       17        1
Co       0.00000000       5.40000000       1.80000000      58.93319400       18        1
Co       1.80000000       3.60000000       1.80000000      58.93319400       19        1
Fe       1.80000000       5.40000000       0.00000000      55.84500000       20        4
Cr       0.00000000       3.60000000       3.60000000      51.99610000       21        3
Cr       0.00000000       5.40000000       5.40000000      51.99610000       22        3
Cr       1.80000000       3.60000000       5.40000000      51.99610000       23        3
Co       1.80000000       5.40000000       3.60000000      58.93319400       24        1
Cr       0.00000000       3.60000000       7.20000000      51.99610000       25        3
Cr       0.00000000       5.40000000       9.00000000      51.99610000       26        3
Co       1.80000000       3.60000000       9.00000000      58.93319400       27        1
Co       1.80000000       5.40000000       7.20000000      58.93319400       28        1
Fe       0.00000000       3.60000000      10.80000000      55.84500000       29        4
Fe       0.00000000       5.40000000      12.60000000      55.84500000       30        4
Mn       1.80000000       3.60000000      12.60000000      54.93804400       31        5
Co       1.80000000       5.40000000      10.80000000      58.93319400       32        1
Co       0.00000000       7.20000000       0.00000000      58.93319400       33        1
Cr       0.00000000       9.00000000       1.80000000      51.99610000       34        3
Cr       1.80000000       7.20000000       1.80000000      51.99610000       35        3
Cr       1.80000000       9.00000000       0.00000000      51.99610000       36        3
Co       0.00000000       7.20000000       3.60000000      58.93319400       37        1
Cr       0.00000000       9.00000000       5.40000000      51.99610000       38        3
Co       1.80000000       7.20000000       5.40000000      58.93319400       39        1
Co       1.80000000       9.00000000       3.60000000      58.93319400       40        1
Cr       0.00000000       7.20000000       7.20000000      51.99610000       41        3
Co       0.00000000       9.00000000       9.00000000      58.93319400       42        1
Cr       1.80000000       7.20000000       9.00000000      51.99610000       43        3
Co       1.80000000       9.00000000       7.20000000      58.93319400       44        1
Co       0.00000000       7.20000000      10.80000000      58.93319400       45        1
Cr       0.00000000       9.00000000      12.60000000      51.99610000       46        3
Cr       1.80000000       7.20000000      12.60000000      51.99610000       47        3
Co       1.80000000       9.00000000      10.80000000      58.93319400       48        1
Ni       0.00000000      10.80000000       0.00000000      58.69340000       49        2
Mn       0.00000000      12.60000000       1.80000000      54.93804400       50        5
Mn       1.80000000      10.80000000       1.80000000      54.93804400       51        5
Ni       1.80000000      12.60000000       0.00000000      58.69340000       52        2
Ni       0.00000000      10.80000000       3.60000000      58.69340000       53        2
Mn       0.00000000      12.60000000       5.40000000      54.93804400       54        5
Fe       1.80000000      10.80000000       5.40000000      55.84500000       55        4
Ni       1.80000000      12.60000000       3.60000000      58.69340000       56        2
Fe       0.00000000      10.80000000       7.20000000      55.84500000       57        4
Fe       0.00000000      12.60000000       9.00000000      55.84500000       58        4
Fe       1.80000000      10.80000000       9.00000000      55.84500000       59        4
Ni       1.80000000      12.60000000       7.20000000      58.69340000       60        2
Co       0.00000000      10.80000000      10.80000000      58.93319400       61        1
Fe       0.00000000      12.60000000      12.60000000      55.84500000       62        4
Cr       1.80000000      10.80000000      12.60000000      51.99610000       63        3
Co       1.80000000      12.60000000      10.80000000      58.93319400       64        1
Mn       3.60000000       0.00000000       0.00000000      54.93804400       65        5
Mn       3.60000000       1.80000000       1.80000000      54.93804400       66        5
Mn       5.40000000       0.00000000       1.80000000      54.93804400       67        5
Ni       5.40000000       1.80000000       0.00000000      58.69340000       68        2
Mn       3.60000000       0.00000000       3.60000000      54.93804400       69        5
Co       3.60000000       1.80000000       5.40000000      58.93319400       70        1
Mn       5.40000000       0.00000000       5.40000000      54.93804400       71        5
Mn       5.40000000       1.80000000       3.60000000      54.93804400       72        5
Fe       3.60000000       0.00000000       7.20000000      55.84500000       73        4
Cr       3.60000000       1.80000000       9.00000000      51.99610000       74        3
Co       5.40000000       0.00000000       9.00000000      58.93319400       75        1
Cr       5.40000000       1.80000000       7.20000000      51.99610000       76        3
Co       3.60000000       0.00000000      10.80000000      58.93319400       77        1
Mn       3.60000000       1.80000000      12.60000000      54.93804400       78        5
Co       5.40000000       0.00000000      12.60000000      58.93319400       79        1
Cr       5.40000000       1.80000000      10.80000000      51.99610000       80        3
Mn       3.60000000       3.60000000       0.00000000      54.93804400       81        5
Cr       3.60000000       5.40000000       1.80000000      51.99610000       82        3
Ni       5.40000000       3.60000000       1.80000000      58.69340000       83        2
Mn       5.40000000       5.40000000       0.00000000      54.93804400       84        5
Cr       3.60000000       3.60000000       3.60000000      51.99610000       85        3
Cr       3.60000000       5.40000000       5.40000000      51.99610000       86        3
Co       5.40000000       3.60000000       5.40000000      58.93319400       87        1
Cr       5.40000000       5.40000000       3.60000000      51.99610000       88        3
Cr       3.60000000       3.60000000       7.20000000      51.99610000       89        3
Cr       3.60000000       5.40000000       9.00000000      51.99610000       90        3
Co       5.40000000       3.60000000       9.00000000      58.93319400       91        1
Co       5.40000000       5.40000000       7.20000000      58.93319400       92        1
Co       3.60000000       3.60000000      10.80000000      58.93319400       93        1
Co       3.60000000       5.40000000      12.60000000      58.93319400       94        1
Co       5.40000000       3.60000000      12.60000000      58.93319400       95        1
Fe       5.40000000       5.40000000      10.80000000      55.84500000       96        4
Ni       3.60000000       7.20000000       0.00000000      58.69340000       97        2
Ni       3.60000000       9.00000000       1.80000000      58.69340000       98        2
Mn       5.40000000       7.20000000       1.80000000      54.93804400       99        5
Mn       5.40000000       9.00000000       0.00000000      54.93804400      100        5
Cr       3.60000000       7.20000000       3.60000000      51.99610000      101        3
Co       3.60000000       9.00000000       5.40000000      58.93319400      102        1
Co       5.40000000       7.20000000       5.40000000      58.93319400      103        1
Fe       5.40000000       9.00000000       3.60000000      55.84500000      104        4
Cr       3.60000000       7.20000000       7.20000000      51.99610000      105        3
Cr       3.60000000       9.00000000       9.00000000      51.99610000      106        3
Co       5.40000000       7.20000000       9.00000000      58.93319400      107        1
Co       5.40000000       9.00000000       7.20000000      58.93319400      108        1
Cr       3.60000000       7.20000000      10.80000000      51.99610000      109        3
Cr       3.60000000       9.00000000      12.60000000      51.99610000      110        3
Ni       5.40000000       7.20000000      12.60000000      58.69340000      111        2
Cr       5.40000000       9.00000000      10.80000000      51.99610000      112        3
Cr       3.60000000      10.80000000       0.00000000      51.99610000      113        3
Ni       3.60000000      12.60000000       1.80000000      58.69340000      114        2
Fe       5.40000000      10.80000000       1.80000000      55.84500000      115        4
Fe       5.40000000      12.60000000       0.00000000      55.84500000      116        4
Fe       3.60000000      10.80000000       3.60000000      55.84500000      117        4
Fe       3.60000000      12.60000000       5.40000000      55.84500000      118        4
Fe       5.40000000      10.80000000       5.40000000      55.84500000      119        4
Fe       5.40000000      12.60000000       3.60000000      55.84500000      120        4
Fe       3.60000000      10.80000000       7.20000000      55.84500000      121        4
Cr       3.60000000      12.60000000       9.00000000      51.99610000      122        3
Cr       5.40000000      10.80000000       9.00000000      51.99610000      123        3
Co       5.40000000      12.60000000       7.20000000      58.93319400      124        1
Co       3.60000000      10.80000000      10.80000000      58.93319400      125        1
Cr       3.60000000      12.60000000      12.60000000      51.99610000      126        3
Co       5.40000000      10.80000000      12.60000000      58.93319400      127        1
Cr       5.40000000      12.60000000      10.80000000      51.99610000      128        3
Mn       7.20000000       0.00000000       0.00000000      54.93804400      129        5
Ni       7.20000000       1.80000000       1.80000000      58.69340000      130        2
Mn       9.00000000       0.00000000       1.80000000      54.93804400      131        5
Mn       9.00000000       1.80000000       0.00000000      54.93804400      132        5
Ni       7.20000000       0.00000000       3.60000000      58.69340000      133        2
Ni       7.20000000       1.80000000       5.40000000      58.69340000      134        2
Mn       9.00000000       0.00000000       5.40000000      54.93804400      135        5
Mn       9.00000000       1.80000000       3.60000000      54.93804400      136        5
Co       7.20000000       0.00000000       7.20000000      58.93319400      137        1
Co       7.20000000       1.80000000       9.00000000      58.93319400      138        1
Mn       9.00000000       0.00000000       9.00000000      54.93804400      139        5
Mn       9.00000000       1.80000000       7.20000000      54.93804400      140        5
Fe       7.20000000       0.00000000      10.80000000      55.84500000      141        4
Fe       7.20000000       1.80000000      12.60000000      55.84500000      142        4
Ni       9.00000000       0.00000000      12.60000000      58.69340000      143        2
Mn       9.00000000       1.80000000      10.80000000      54.93804400      144        5
Mn       7.20000000       3.60000000       0.00000000      54.93804400      145        5
Ni       7.20000000       5.40000000       1.80000000      58.69340000      146        2
Mn       9.00000000       3.60000000       1.80000000      54.93804400      147        5
Fe       9.00000000       5.40000000       0.00000000      55.84500000      148        4
Mn       7.20000000       3.60000000       3.60000000      54.93804400      149        5
Cr       7.20000000       5.40000000       5.40000000      51.99610000      150        3
Ni       9.00000000       3.60000000       5.40000000      58.69340000      151        2
Fe       9.00000000       5.40000000       3.60000000      55.84500000      152        4
Mn       7.20000000       3.60000000       7.20000000      54.93804400      153        5
Mn       7.20000000       5.40000000       9.00000000      54.93804400      154        5
Co       9.00000000       3.60000000       9.00000000      58.93319400      155        1
Cr       9.00000000       5.40000000       7.20000000      51.99610000      156        3
Cr       7.20000000       3.60000000      10.80000000      51.99610000      157        3
Fe       7.20000000       5.40000000      12.60000000      55.84500000      158        4
Ni       9.00000000       3.60000000      12.60000000      58.69340000      159        2
Fe       9.00000000       5.40000000      10.80000000      55.84500000      160        4
Mn       7.20000000       7.20000000       0.00000000      54.93804400      161        5
Ni       7.20000000       9.00000000       1.80000000      58.69340000      162        2
Fe       9.00000000       7.20000000       1.80000000      55.84500000      163        4
Mn       9.00000000       9.00000000       0.00000000      54.93804400      164        5
Cr       7.20000000       7.20000000       3.60000000      51.99610000      165        3
Fe       7.20000000       9.00000000       5.40000000      55.84500000      166        4
Ni       9.00000000       7.20000000       5.40000000      58.69340000      167        2
Mn       9.00000000       9.00000000       3.60000000      54.93804400      168        5
Fe       7.20000000       7.20000000       7.20000000      55.84500000      169        4
Fe       7.20000000       9.00000000       9.00000000      55.84500000      170        4
Ni       9.00000000       7.20000000       9.00000000      58.69340000      171        2
Fe       9.00000000       9.00000000       7.20000000      55.84500000      172        4
Fe       7.20000000       7.20000000      10.80000000      55.84500000      173        4
Mn       7.20000000       9.00000000      12.60000000      54.93804400      174        5
Ni       9.00000000       7.20000000      12.60000000      58.69340000      175        2
Fe       9.00000000       9.00000000      10.80000000      55.84500000      176        4
Mn       7.20000000      10.80000000       0.00000000      54.93804400      177        5
Ni       7.20000000      12.60000000       1.80000000      58.69340000      178        2
Ni       9.00000000      10.80000000       1.80000000      58.69340000      179        2
Mn       9.00000000      12.60000000       0.00000000      54.93804400      180        5
Fe       7.20000000      10.80000000       3.60000000      55.84500000      181        4
Mn       7.20000000      12.60000000       5.40000000      54.93804400      182        5
Ni       9.00000000      10.80000000       5.40000000      58.69340000      183        2
Mn       9.00000000      12.60000000       3.60000000      54.93804400      184        5
Fe       7.20000000      10.80000000       7.20000000      55.84500000      185        4
Mn       7.20000000      12.60000000       9.00000000      54.93804400      186        5
Fe       9.00000000      10.80000000       9.00000000      55.84500000      187        4
Ni       9.00000000      12.60000000       7.20000000      58.69340000      188        2
Co       7.20000000      10.80000000      10.80000000      58.93319400      189        1
Fe       7.20000000      12.60000000      12.60000000      55.84500000      190        4
Ni       9.00000000      10.80000000      12.60000000      58.69340000      191        2
Mn       9.00000000      12.60000000      10.80000000      54.93804400      192        5
Ni      10.80000000       0.00000000       0.00000000      58.69340000      193        2
Ni      10.80000000       1.80000000       1.80000000      58.69340000      194        2
Mn      12.60000000       0.00000000       1.80000000      54.93804400      195        5
Mn      12.60000000       1.80000000       0.00000000      54.93804400      196        5
Ni      10.80000000       0.00000000       3.60000000      58.69340000      197        2
Mn      10.80000000       1.80000000       5.40000000      54.93804400      198        5
Ni      12.60000000       0.00000000       5.40000000      58.69340000      199        2
Mn      12.60000000       1.80000000       3.60000000      54.93804400      200        5
Ni      10.80000000       0.00000000       7.20000000      58.69340000      201        2
Mn      10.80000000       1.80000000       9.00000000      54.93804400      202        5
Mn      12.60000000       0.00000000       9.00000000      54.93804400      203        5
Mn      12.60000000       1.80000000       7.20000000      54.93804400      204        5
Ni      10.80000000       0.00000000      10.80000000      58.69340000      205        2
Mn      10.80000000       1.80000000      12.60000000      54.93804400      206        5
Mn      12.60000000       0.00000000      12.60000000      54.93804400      207        5
Mn      12.60000000       1.80000000      10.80000000      54.93804400      208        5
Ni      10.80000000       3.60000000       0.00000000      58.69340000      209        2
Ni      10.80000000       5.40000000       1.80000000      58.69340000      210        2
Cr      12.60000000       3.60000000       1.80000000      51.99610000      211        3
Cr      12.60000000       5.40000000       0.00000000      51.99610000      212        3
Ni      10.80000000       3.60000000       3.60000000      58.69340000      213        2
Cr      10.80000000       5.40000000       5.40000000      51.99610000      214        3
Ni      12.60000000       3.60000000       5.40000000      58.69340000      215        2
Cr      12.60000000       5.40000000       3.60000000      51.99610000      216        3
Ni      10.80000000       3.60000000       7.20000000      58.69340000      217        2
Fe      10.80000000       5.40000000       9.00000000      55.84500000      218        4
Ni      12.60000000       3.60000000       9.00000000      58.69340000      219        2
Cr      12.60000000       5.40000000       7.20000000      51.99610000      220        3
Fe      10.80000000       3.60000000      10.80000000      55.84500000      221        4
Fe      10.80000000       5.40000000      12.60000000      55.84500000      222        4
Fe      12.60000000       3.60000000      12.60000000      55.84500000      223        4
Fe      12.60000000       5.40000000      10.80000000      55.84500000      224        4
Cr      10.80000000       7.20000000       0.00000000      51.99610000      225        3
Ni      10.80000000       9.00000000       1.80000000      58.69340000      226        2
Cr      12.60000000       7.20000000       1.80000000      51.99610000      227        3
Cr      12.60000000       9.00000000       0.00000000      51.99610000      228        3
Fe      10.80000000       7.20000000       3.60000000      55.84500000      229        4
Fe      10.80000000       9.00000000       5.40000000      55.84500000      230        4
Co      12.60000000       7.20000000       5.40000000      58.93319400      231        1
Fe      12.60000000       9.00000000       3.60000000      55.84500000      232        4
Fe      10.80000000       7.20000000       7.20000000      55.84500000      233        4
Fe      10.80000000       9.00000000       9.00000000      55.84500000      234        4
Co      12.60000000       7.20000000       9.00000000      58.93319400      235        1
Co      12.60000000       9.00000000       7.20000000      58.93319400      236        1
Fe      10.80000000       7.20000000      10.80000000      55.84500000      237        4
Fe      10.80000000       9.00000000      12.60000000      55.84500000      238        4
Co      12.60000000       7.20000000      12.60000000      58.93319400      239        1
Fe      12.60000000       9.00000000      10.80000000      55.84500000      240        4
Fe      10.80000000      10.80000000       0.00000000      55.84500000      241        4
Mn      10.80000000      12.60000000       1.80000000      54.93804400      242        5
Mn      12.60000000      10.80000000       1.80000000      54.93804400      243        5
Ni      12.60000000      12.60000000       0.00000000      58.69340000      244        2
Ni      10.80000000      10.80000000       3.60000000      58.69340000      245        2
Mn      10.80000000      12.60000000       5.40000000      54.93804400      246        5
Co      12.60000000      10.80000000       5.40000000      58.93319400      247        1
Mn      12.60000000      12.60000000       3.60000000      54.93804400      248        5
Fe      10.80000000      10.80000000       7.20000000      55.84500000      249        4
Mn      10.80000000      12.60000000       9.00000000      54.93804400      250        5
Co      12.60000000      10.80000000       9.00000000      58.93319400      251        1
Fe      12.60000000      12.60000000       7.20000000      55.84500000      252        4
Co      10.80000000      10.80000000      10.80000000      58.93319400      253        1
Mn      10.80000000      12.60000000      12.60000000      54.93804400      254        5
Fe      12.60000000      10.80000000      12.60000000      55.84500000      255        4
Fe      12.60000000      12.60000000      10.80000000      55.84500000      256        4
