256
Lattice="14.4 0.0 0.0 0.0 14.4 0.0 0.0 0.0 14.4" Properties=species:S:1:pos:R:3:masses:R:1:id:I:1:type:I:1 comment="(written by ASE)" energy=-1027.74010908815 pbc="T T T"
Mn       0.00000000       0.00000000       0.00000000      54.93804400        1        5
Ni       0.00000000       1.80000000       1.80000000      58.69340000        2        2
Cr       1.80000000       0.00000000       1.80000000      51.99610000        3        3
Ni       1.80000000       1.80000000       0.00000000      58.69340000        4        2
Mn       0.00000000       0.00000000       3.60000000      54.93804400        5        5
Co       0.00000000       1.80000000       5.40000000      58.93319400        6        1
Fe       1.80000000       0.00000000       5.40000000      55.84500000        7        4
Fe       1.80000000       1.80000000       3.60000000      55.84500000        8        4
Fe       0.00000000       0.00000000       7.20000000      55.84500000        9        4
Mn       0.00000000       1.80000000       9.00000000      54.93804400       10        5
Cr       1.80000000       0.00000000       9.00000000      51.99610000       11        3
Mn       1.80000000       1.80000000       7.20000000      54.93804400       12        5
Cr       0.00000000       0.00000000      10.80000000      51.99610000       13        3
Cr       0.00000000       1.80000000      12.60000000      51.99610000       14        3
Mn       1.80000000       0.00000000      12.60000000      54.93804400       15        5
Ni       1.80000000       1.80000000      10.80000000      58.69340000       16        2
Ni       0.00000000       3.60000000       0.00000000      58.69340000       17        2
Co       0.00000000       5.40000000       1.80000000      58.93319400       18        1
Co       1.80000000       3.60000000       1.80000000      58.93319400       19        1
Co       1.80000000       5.40000000       0.00000000      58.93319400       20        1
Co       0.00000000       3.60000000       3.60000000      58.93319400       21        1
Co       0.00000000       5.40000000       5.40000000      58.93319400       22        1
Co       1.80000000       3.60000000       5.40000000      58.93319400       23        1
Co       1.80000000       5.40000000       3.60000000      58.93319400       24        1
Co       0.00000000       3.60000000       7.20000000      58.93319400       25        1
Co       0.00000000       5.40000000       9.00000000      58.93319400       26        1
Fe       1.80000000       3.60000000       9.00000000      55.84500000       27        4
Co       1.80000000       5.40000000       7.20000000      58.93319400       28        1
Fe       0.00000000       3.60000000      10.80000000      55.84500000       29        4
Co       0.00000000       5.40000000      12.60000000      58.93319400       30        1
Mn       1.80000000       3.60000000      12.60000000      54.93804400       31        5
Fe       1.80000000       5.40000000      10.80000000      55.84500000       32        4
Co       0.00000000       7.20000000       0.00000000      58.93319400       33        1
Mn       0.00000000       9.00000000       1.80000000      54.93804400       34        5
Co       1.80000000       7.20000000       1.80000000      58.93319400       35        1
Co       1.80000000       9.00000000       0.00000000      58.93319400       36        1
Co       0.00000000       7.20000000       3.60000000      58.93319400       37        1
Fe       0.00000000       9.00000000       5.40000000      55.84500000       38        4
Co       1.80000000       7.20000000       5.40000000      58.93319400       39        1
Co       1.80000000       9.00000000       3.60000000      58.93319400       40        1
Co       0.00000000       7.20000000       7.20000000      58.93319400       41        1
Mn       0.00000000       9.00000000       9.00000000      54.93804400       42        5
Co       1.80000000       7.20000000       9.00000000      58.93319400       43        1
Fe       1.80000000       9.00000000       7.20000000      55.84500000       44        4
Co       0.00000000       7.20000000      10.80000000      58.93319400       45        1
Fe       0.00000000       9.00000000      12.60000000      55.84500000       46        4
Co       1.80000000       7.20000000      12.60000000      58.93319400       47        1
Co       1.80000000       9.00000000      10.80000000      58.93319400       48        1
Ni       0.00000000      10.80000000       0.00000000      58.69340000       49        2
Ni       0.00000000      12.60000000       1.80000000      58.69340000       50        2
Fe       1.80000000      10.80000000       1.80000000      55.84500000       51        4
Fe       1.80000000      12.60000000       0.00000000      55.84500000       52        4
Mn       0.00000000      10.80000000       3.60000000      54.93804400       53        5
Ni       0.00000000      12.60000000       5.40000000      58.69340000       54        2
Fe       1.80000000      10.80000000       5.40000000      55.84500000       55        4
Fe       1.80000000      12.60000000       3.60000000      55.84500000       56        4
Cr       0.00000000      10.80000000       7.20000000      51.99610000       57        3
Ni       0.00000000      12.60000000       9.00000000      58.69340000       58        2
Mn       1.80000000      10.80000000       9.00000000      54.93804400       59        5
Mn       1.80000000      12.60000000       7.20000000      54.93804400       60        5
Cr       0.00000000      10.80000000      10.80000000      51.99610000       61        3
Cr       0.00000000      12.60000000      12.60000000      51.99610000       62        3
Mn       1.80000000      10.80000000      12.60000000      54.93804400       63        5
Ni       1.80000000      12.60000000      10.80000000      58.69340000       64        2
Cr       3.60000000       0.00000000       0.00000000      51.99610000       65        3
Mn       3.60000000       1.80000000       1.80000000      54.93804400       66        5
Fe       5.40000000       0.00000000       1.80000000      55.84500000       67        4
Cr       5.40000000       1.80000000       0.00000000      51.99610000       68        3
Mn       3.60000000       0.00000000       3.60000000      54.93804400       69        5
Fe       3.60000000       1.80000000       5.40000000      55.84500000       70        4
Ni       5.40000000       0.00000000       5.40000000      58.69340000       71        2
Fe       5.40000000       1.80000000       3.60000000      55.84500000       72        4
Cr       3.60000000       0.00000000       7.20000000      51.99610000       73        3
Mn       3.60000000       1.80000000       9.00000000      54.93804400       74        5
Cr       5.40000000       0.00000000       9.00000000      51.99610000       75        3
Mn       5.40000000       1.80000000       7.20000000      54.93804400       76        5
Cr       3.60000000       0.00000000      10.80000000      51.99610000       77        3
Ni       3.60000000       1.80000000      12.60000000      58.69340000       78        2
Ni       5.40000000       0.00000000      12.60000000      58.69340000       79        2
Ni       5.40000000       1.80000000      10.80000000      58.69340000       80        2
Ni       3.60000000       3.60000000       0.00000000      58.69340000       81        2
Co       3.60000000       5.40000000       1.80000000      58.93319400       82        1
Fe       5.40000000       3.60000000       1.80000000      55.84500000       83        4
Cr       5.40000000       5.40000000       0.00000000      51.99610000       84        3
Co       3.60000000       3.60000000       3.60000000      58.93319400       85        1
Co       3.60000000       5.40000000       5.40000000      58.93319400       86        1
Mn       5.40000000       3.60000000       5.40000000      54.93804400       87        5
Fe       5.40000000       5.40000000       3.60000000      55.84500000       88        4
Fe       3.60000000       3.60000000       7.20000000      55.84500000       89        4
Mn       3.60000000       5.40000000       9.00000000      54.93804400       90        5
Cr       5.40000000       3.60000000       9.00000000      51.99610000       91        3
Ni       5.40000000       5.40000000       7.20000000      58.69340000       92        2
Cr       3.60000000       3.60000000      10.80000000      51.99610000       93        3
Fe       3.60000000       5.40000000      12.60000000      55.84500000       94        4
Mn       5.40000000       3.60000000      12.60000000      54.93804400       95        5
Ni       5.40000000       5.40000000      10.80000000      58.69340000       96        2
Mn       3.60000000       7.20000000       0.00000000      54.93804400       97        5
Co       3.60000000       9.00000000       1.80000000      58.93319400       98        1
Ni       5.40000000       7.20000000       1.80000000      58.69340000       99        2
Ni       5.40000000       9.00000000       0.00000000      58.69340000      100        2
Co       3.60000000       7.20000000       3.60000000      58.93319400      101        1
Co       3.60000000       9.00000000       5.40000000      58.93319400      102        1
Mn       5.40000000       7.20000000       5.40000000      54.93804400      103        5
Fe       5.40000000       9.00000000       3.60000000      55.84500000      104        4
Co       3.60000000       7.20000000       7.20000000      58.93319400      105        1
Co       3.60000000       9.00000000       9.00000000      58.93319400      106        1
Fe       5.40000000       7.20000000       9.00000000      55.84500000      107        4
Cr       5.40000000       9.00000000       7.20000000      51.99610000      108        3
Fe       3.60000000       7.20000000      10.80000000      55.84500000      109        4
Fe       3.60000000       9.00000000      12.60000000      55.84500000      110        4
Mn       5.40000000       7.20000000      12.60000000      54.93804400      111        5
Fe       5.40000000       9.00000000      10.80000000      55.84500000      112        4
Co       3.60000000      10.80000000       0.00000000      58.93319400      113        1
Mn       3.60000000      12.60000000       1.80000000      54.93804400      114        5
Co       5.40000000      10.80000000       1.80000000      58.93319400      115        1
Fe       5.40000000      12.60000000       0.00000000      55.84500000      116        4
Fe       3.60000000      10.80000000       3.60000000      55.84500000      117        4
Cr       3.60000000      12.60000000       5.40000000      51.99610000      118        3
Mn       5.40000000      10.80000000       5.40000000      54.93804400      119        5
Fe       5.40000000      12.60000000       3.60000000      55.84500000      120        4
Fe       3.60000000      10.80000000       7.20000000      55.84500000      121        4
Cr       3.60000000      12.60000000       9.00000000      51.99610000      122        3
Mn       5.40000000      10.80000000       9.00000000      54.93804400      123        5
Ni       5.40000000      12.60000000       7.20000000      58.69340000      124        2
Co       3.60000000      10.80000000      10.80000000      58.93319400      125        1
Fe       3.60000000      12.60000000      12.60000000      55.84500000      126        4
Co       5.40000000      10.80000000      12.60000000      58.93319400      127        1
Ni       5.40000000      12.60000000      10.80000000      58.69340000      128        2
Mn       7.20000000       0.00000000       0.00000000      54.93804400      129        5
Mn       7.20000000       1.80000000       1.80000000      54.93804400      130        5
Fe       9.00000000       0.00000000       1.80000000      55.84500000      131        4
Cr       9.00000000       1.80000000       0.00000000      51.99610000      132        3
Fe       7.20000000       0.00000000       3.60000000      55.84500000      133        4
Fe       7.20000000       1.80000000       5.40000000      55.84500000      134        4
Co       9.00000000       0.00000000       5.40000000      58.93319400      135        1
Co       9.00000000       1.80000000       3.60000000      58.93319400      136        1
Ni       7.20000000       0.00000000       7.20000000      58.69340000      137        2
Cr       7.20000000       1.80000000       9.00000000      51.99610000      138        3
Fe       9.00000000       0.00000000       9.00000000      55.84500000      139        4
Mn       9.00000000       1.80000000       7.20000000      54.93804400      140        5
Mn       7.20000000       0.00000000      10.80000000      54.93804400      141        5
Cr       7.20000000       1.80000000      12.60000000      51.99610000      142        3
Ni       9.00000000       0.00000000      12.60000000      58.69340000      143        2
Ni       9.00000000       1.80000000      10.80000000      58.69340000      144        2
Ni       7.20000000       3.60000000       0.00000000      58.69340000      145        2
Mn       7.20000000       5.40000000       1.80000000      54.93804400      146        5
Ni       9.00000000       3.60000000       1.80000000      58.69340000      147        2
Ni       9.00000000       5.40000000       0.00000000      58.69340000      148        2
Mn       7.20000000       3.60000000       3.60000000      54.93804400      149        5
Cr       7.20000000       5.40000000       5.40000000      51.99610000      150        3
Co       9.00000000       3.60000000       5.40000000      58.93319400      151        1
Mn       9.00000000       5.40000000       3.60000000      54.93804400      152        5
Ni       7.20000000       3.60000000       7.20000000      58.69340000      153        2
Mn       7.20000000       5.40000000       9.00000000      54.93804400      154        5
Cr       9.00000000       3.60000000       9.00000000      51.99610000      155        3
Mn       9.00000000       5.40000000       7.20000000      54.93804400      156        5
Cr       7.20000000       3.60000000      10.80000000      51.99610000      157        3
Cr       7.20000000       5.40000000      12.60000000      51.99610000      158        3
Mn       9.00000000       3.60000000      12.60000000      54.93804400      159        5
Ni       9.00000000       5.40000000      10.80000000      58.69340000      160        2
Cr       7.20000000       7.20000000       0.00000000      51.99610000      161        3
Mn       7.20000000       9.00000000       1.80000000      54.93804400      162        5
Cr       9.00000000       7.20000000       1.80000000      51.99610000      163        3
Cr       9.00000000       9.00000000       0.00000000      51.99610000      164        3
Ni       7.20000000       7.20000000       3.60000000      58.69340000      165        2
Ni       7.20000000       9.00000000       5.40000000      58.69340000      166        2
Cr       9.00000000       7.20000000       5.40000000      51.99610000      167        3
Mn       9.00000000       9.00000000       3.60000000      54.93804400      168        5
Cr       7.20000000       7.20000000       7.20000000      51.99610000      169        3
Ni       7.20000000       9.00000000       9.00000000      58.69340000      170        2
Cr       9.00000000       7.20000000       9.00000000      51.99610000      171        3
Cr       9.00000000       9.00000000       7.20000000      51.99610000      172        3
Cr       7.20000000       7.20000000      10.80000000      51.99610000      173        3
Fe       7.20000000       9.00000000      12.60000000      55.84500000      174        4
Mn       9.00000000       7.20000000      12.60000000      54.93804400      175        5
Mn       9.00000000       9.00000000      10.80000000      54.93804400      176        5
Mn       7.20000000      10.80000000       0.00000000      54.93804400      177        5
Co       7.20000000      12.60000000       1.80000000      58.93319400      178        1
Fe       9.00000000      10.80000000       1.80000000      55.84500000      179        4
Fe       9.00000000      12.60000000       0.00000000      55.84500000      180        4
Fe       7.20000000      10.80000000       3.60000000      55.84500000      181        4
Fe       7.20000000      12.60000000       5.40000000      55.84500000      182        4
Cr       9.00000000      10.80000000       5.40000000      51.99610000      183        3
Co       9.00000000      12.60000000       3.60000000      58.93319400      184        1
Mn       7.20000000      10.80000000       7.20000000      54.93804400      185        5
Cr       7.20000000      12.60000000       9.00000000      51.99610000      186        3
Cr       9.00000000      10.80000000       9.00000000      51.99610000      187        3
Mn       9.00000000      12.60000000       7.20000000      54.93804400      188        5
Mn       7.20000000      10.80000000      10.80000000      54.93804400      189        5
Fe       7.20000000      12.60000000      12.60000000      55.84500000      190        4
Mn       9.00000000      10.80000000      12.60000000      54.93804400      191        5
Fe       9.00000000      12.60000000      10.80000000      55.84500000      192        4
Mn      10.80000000       0.00000000       0.00000000      54.93804400      193        5
Ni      10.80000000       1.80000000       1.80000000      58.69340000      194        2
Cr      12.60000000       0.00000000       1.80000000      51.99610000      195        3
Cr      12.60000000       1.80000000       0.00000000      51.99610000      196        3
Ni      10.80000000       0.00000000       3.60000000      58.69340000      197        2
Co      10.80000000       1.80000000       5.40000000      58.93319400      198        1
Fe      12.60000000       0.00000000       5.40000000      55.84500000      199        4
Mn      12.60000000       1.80000000       3.60000000      54.93804400      200        5
Fe      10.80000000       0.00000000       7.20000000      55.84500000      201        4
Fe      10.80000000       1.80000000       9.00000000      55.84500000      202        4
Fe      12.60000000       0.00000000       9.00000000      55.84500000      203        4
Co      12.60000000       1.80000000       7.20000000      58.93319400      204        1
Mn      10.80000000       0.00000000      10.80000000      54.93804400      205        5
Ni      10.80000000       1.80000000      12.60000000      58.69340000      206        2
Ni      12.60000000       0.00000000      12.60000000      58.69340000      207        2
Mn      12.60000000       1.80000000      10.80000000      54.93804400      208        5
Mn      10.80000000       3.60000000       0.00000000      54.93804400      209        5
Mn      10.80000000       5.40000000       1.80000000      54.93804400      210        5
Fe      12.60000000       3.60000000       1.80000000      55.84500000      211        4
Fe      12.60000000       5.40000000       0.00000000      55.84500000      212        4
Fe      10.80000000       3.60000000       3.60000000      55.84500000      213        4
Fe      10.80000000       5.40000000       5.40000000      55.84500000      214        4
Co      12.60000000       3.60000000       5.40000000      58.93319400      215        1
Co      12.60000000       5.40000000       3.60000000      58.93319400      216        1
Co      10.80000000       3.60000000       7.20000000      58.93319400      217        1
Mn      10.80000000       5.40000000       9.00000000      54.93804400      218        5
Co      12.60000000       3.60000000       9.00000000      58.93319400      219        1
Co      12.60000000       5.40000000       7.20000000      58.93319400      220        1
Mn      10.80000000       3.60000000      10.80000000      54.93804400      221        5
Cr      10.80000000       5.40000000      12.60000000      51.99610000      222        3
Mn      12.60000000       3.60000000      12.60000000      54.93804400      223        5
Fe      12.60000000       5.40000000      10.80000000      55.84500000      224        4
Ni      10.80000000       7.20000000       0.00000000      58.69340000      225        2
Mn      10.80000000       9.00000000       1.80000000      54.93804400      226        5
Fe      12.60000000       7.20000000       1.80000000      55.84500000      227        4
Cr      12.60000000       9.00000000       0.00000000      51.99610000      228        3
Fe      10.80000000       7.20000000       3.60000000      55.84500000      229        4
Mn      10.80000000       9.00000000       5.40000000      54.93804400      230        5
Co      12.60000000       7.20000000       5.40000000      58.93319400      231        1
Ni      12.60000000       9.00000000       3.60000000      58.69340000      232        2
Ni      10.80000000       7.20000000       7.20000000      58.69340000      233        2
Cr      10.80000000       9.00000000       9.00000000      51.99610000      234        3
Co      12.60000000       7.20000000       9.00000000      58.93319400      235        1
Ni      12.60000000       9.00000000       7.20000000      58.69340000      236        2
Ni      10.80000000       7.20000000      10.80000000      58.69340000      237        2
Cr      10.80000000       9.00000000      12.60000000      51.99610000      238        3
Mn      12.60000000       7.20000000      12.60000000      54.93804400      239        5
Ni      12.60000000       9.00000000      10.80000000      58.69340000      240        2
Ni      10.80000000      10.80000000       0.00000000      58.69340000      241        2
Ni      10.80000000      12.60000000       1.80000000      58.69340000      242        2
Cr      12.60000000      10.80000000       1.80000000      51.99610000      243        3
Cr      12.60000000      12.60000000       0.00000000      51.99610000      244        3
Ni      10.80000000      10.80000000       3.60000000      58.69340000      245        2
Mn      10.80000000      12.60000000       5.40000000      54.93804400      246        5
Cr      12.60000000      10.80000000       5.40000000      51.99610000      247        3
Cr      12.60000000      12.60000000       3.60000000      51.99610000      248        3
Ni      10.80000000      10.80000000       7.20000000      58.69340000      249        2
Mn      10.80000000      12.60000000       9.00000000      54.93804400      250        5
Fe      12.60000000      10.80000000       9.00000000      55.84500000      251        4
Mn      12.60000000      12.60000000       7.20000000      54.93804400      252        5
Ni      10.80000000      10.80000000      10.80000000      58.69340000      253        2
Cr      10.80000000      12.60000000      12.60000000      51.99610000      254        3
Mn      12.60000000      10.80000000      12.60000000      54.93804400      255        5
Mn      12.60000000      12.60000000      10.80000000      54.93804400      256        5
