256
Lattice="14.4 0.0 0.0 0.0 14.4 0.0 0.0 0.0 14.4" Properties=species:S:1:pos:R:3:masses:R:1:id:I:1:type:I:1 comment="(written by ASE)" energy=-1023.73348777578 pbc="T T T"
Mn       0.00000000       0.00000000       0.00000000      54.93804400        1        5
Ni       0.00000000       1.80000000       1.80000000      58.69340000        2        2
Ni       1.80000000       0.00000000       1.80000000      58.69340000        3        2
Ni       1.80000000       1.80000000       0.00000000      58.69340000        4        2
Mn       0.00000000       0.00000000       3.60000000      54.93804400        5        5
Mn       0.00000000       1.80000000       5.40000000      54.93804400        6        5
Ni       1.80000000       0.00000000       5.40000000      58.69340000        7        2
Ni       1.80000000       1.80000000       3.60000000      58.69340000        8        2
Ni       0.00000000       0.00000000       7.20000000      58.69340000        9        2
Co       0.00000000       1.80000000       9.00000000      58.93319400       10        1
Mn       1.80000000       0.00000000       9.00000000      54.93804400       11        5
Mn       1.80000000       1.80000000       7.20000000      54.93804400       12        5
Mn       0.00000000       0.00000000      10.80000000      54.93804400       13        5
Fe       0.00000000       1.80000000      12.60000000      55.84500000       14        4
Mn       1.80000000       0.00000000      12.60000000      54.93804400       15        5
Fe       1.80000000       1.80000000      10.80000000      55.84500000       16        4
Mn       0.00000000       3.60000000       0.00000000      54.93804400       17        5
Fe       0.00000000       5.40000000       1.80000000      55.84500000       18        4
Ni       1.80000000       3.60000000       1.80000000      58.69340000       19        2
Cr       1.80000000       5.40000000       0.00000000      51.99610000       20        3
Ni       0.00000000       3.60000000       3.60000000      58.69340000       21        2
Mn       0.00000000       5.40000000       5.40000000      54.93804400       22        5
Ni       1.80000000       3.60000000       5.40000000      58.69340000       23        2
Mn       1.80000000       5.40000000       3.60000000      54.93804400       24        5
Ni       0.00000000       3.60000000       7.20000000      58.69340000       25        2
Co       0.00000000       5.40000000       9.00000000      58.93319400       26        1
Ni       1.80000000       3.60000000       9.00000000      58.69340000       27        2
Mn       1.80000000       5.40000000       7.20000000      54.93804400       28        5
Co       0.00000000       3.60000000      10.80000000      58.93319400       29        1
Cr       0.00000000       5.40000000      12.60000000      51.99610000       30        3
Co       1.80000000       3.60000000      12.60000000      58.93319400       31        1
Fe       1.80000000       5.40000000      10.80000000      55.84500000       32        4
Co       0.00000000       7.20000000       0.00000000      58.93319400       33        1
Fe       0.00000000       9.00000000       1.80000000      55.84500000       34        4
Mn       1.80000000       7.20000000       1.80000000      54.93804400       35        5
Ni       1.80000000       9.00000000       0.00000000      58.69340000       36        2
Cr       0.00000000       7.20000000       3.60000000      51.99610000       37        3
Cr       0.00000000       9.00000000       5.40000000      51.99610000       38        3
Fe       1.80000000       7.20000000       5.40000000      55.84500000       39        4
Co       1.80000000       9.00000000       3.60000000      58.93319400       40        1
Cr       0.00000000       7.20000000       7.20000000      51.99610000       41        3
Fe       0.00000000       9.00000000       9.00000000      55.84500000       42        4
Mn       1.80000000       7.20000000       9.00000000      54.93804400       43        5
Cr       1.80000000       9.00000000       7.20000000      51.99610000       44        3
Cr       0.00000000       7.20000000      10.80000000      51.99610000       45        3
Co       0.00000000       9.00000000      12.60000000      58.93319400       46        1
Co       1.80000000       7.20000000      12.60000000      58.93319400       47        1
Fe       1.80000000       9.00000000      10.80000000      55.84500000       48        4
Fe       0.00000000      10.80000000       0.00000000      55.84500000       49        4
Ni       0.00000000      12.60000000       1.80000000      58.69340000       50        2
Mn       1.80000000      10.80000000       1.80000000      54.93804400       51        5
Ni       1.80000000      12.60000000       0.00000000      58.69340000       52        2
Cr       0.00000000      10.80000000       3.60000000      51.99610000       53        3
Mn       0.00000000      12.60000000       5.40000000      54.93804400       54        5
Fe       1.80000000      10.80000000       5.40000000      55.84500000       55        4
Fe       1.80000000      12.60000000       3.60000000      55.84500000       56        4
Mn       0.00000000      10.80000000       7.20000000      54.93804400       57        5
Ni       0.00000000      12.60000000       9.00000000      58.69340000       58        2
Co       1.80000000      10.80000000       9.00000000      58.93319400       59        1
Ni       1.80000000      12.60000000       7.20000000      58.69340000       60        2
Mn       0.00000000      10.80000000      10.80000000      54.93804400       61        5
Ni       0.00000000      12.60000000      12.60000000      58.69340000       62        2
Mn       1.80000000      10.80000000      12.60000000      54.93804400       63        5
Ni       1.80000000      12.60000000      10.80000000      58.69340000       64        2
Mn       3.60000000       0.00000000       0.00000000      54.93804400       65        5
Mn       3.60000000       1.80000000       1.80000000      54.93804400       66        5
Fe       5.40000000       0.00000000       1.80000000      55.84500000       67        4
Fe       5.40000000       1.80000000       0.00000000      55.84500000       68        4
Mn       3.60000000       0.00000000       3.60000000      54.93804400       69        5
Mn       3.60000000       1.80000000       5.40000000      54.93804400       70        5
Fe       5.40000000       0.00000000       5.40000000      55.84500000       71        4
Fe       5.40000000       1.80000000       3.60000000      55.84500000       72        4
Ni       3.60000000       0.00000000       7.20000000      58.69340000       73        2
Mn       3.60000000       1.80000000       9.00000000      54.93804400       74        5
Fe       5.40000000       0.00000000       9.00000000      55.84500000       75        4
Mn       5.40000000       1.80000000       7.20000000      54.93804400       76        5
Fe       3.60000000       0.00000000      10.80000000      55.84500000       77        4
Cr       3.60000000       1.80000000      12.60000000      51.99610000       78        3
Fe       5.40000000       0.00000000      12.60000000      55.84500000       79        4
Co       5.40000000       1.80000000      10.80000000      58.93319400       80        1
Co       3.60000000       3.60000000       0.00000000      58.93319400       81        1
Fe       3.60000000       5.40000000       1.80000000      55.84500000       82        4
Cr       5.40000000       3.60000000       1.80000000      51.99610000       83        3
Fe       5.40000000       5.40000000       0.00000000      55.84500000       84        4
Mn       3.60000000       3.60000000       3.60000000      54.93804400       85        5
Fe       3.60000000       5.40000000       5.40000000      55.84500000       86        4
Fe       5.40000000       3.60000000       5.40000000      55.84500000       87        4
Cr       5.40000000       5.40000000       3.60000000      51.99610000       88        3
Ni       3.60000000       3.60000000       7.20000000      58.69340000       89        2
Co       3.60000000       5.40000000       9.00000000      58.93319400       90        1
Ni       5.40000000       3.60000000       9.00000000      58.69340000       91        2
Mn       5.40000000       5.40000000       7.20000000      54.93804400       92        5
Co       3.60000000       3.60000000      10.80000000      58.93319400       93        1
Cr       3.60000000       5.40000000      12.60000000      51.99610000       94        3
Cr       5.40000000       3.60000000      12.60000000      51.99610000       95        3
Cr       5.40000000       5.40000000      10.80000000      51.99610000       96        3
Mn       3.60000000       7.20000000       0.00000000      54.93804400       97        5
Ni       3.60000000       9.00000000       1.80000000      58.69340000       98        2
Fe       5.40000000       7.20000000       1.80000000      55.84500000       99        4
Co       5.40000000       9.00000000       0.00000000      58.93319400      100        1
Fe       3.60000000       7.20000000       3.60000000      55.84500000      101        4
Co       3.60000000       9.00000000       5.40000000      58.93319400      102        1
Cr       5.40000000       7.20000000       5.40000000      51.99610000      103        3
Mn       5.40000000       9.00000000       3.60000000      54.93804400      104        5
Cr       3.60000000       7.20000000       7.20000000      51.99610000      105        3
Cr       3.60000000       9.00000000       9.00000000      51.99610000      106        3
Fe       5.40000000       7.20000000       9.00000000      55.84500000      107        4
Co       5.40000000       9.00000000       7.20000000      58.93319400      108        1
Co       3.60000000       7.20000000      10.80000000      58.93319400      109        1
Fe       3.60000000       9.00000000      12.60000000      55.84500000      110        4
Fe       5.40000000       7.20000000      12.60000000      55.84500000      111        4
Mn       5.40000000       9.00000000      10.80000000      54.93804400      112        5
Ni       3.60000000      10.80000000       0.00000000      58.69340000      113        2
Mn       3.60000000      12.60000000       1.80000000      54.93804400      114        5
Mn       5.40000000      10.80000000       1.80000000      54.93804400      115        5
Ni       5.40000000      12.60000000       0.00000000      58.69340000      116        2
Fe       3.60000000      10.80000000       3.60000000      55.84500000      117        4
Mn       3.60000000      12.60000000       5.40000000      54.93804400      118        5
Fe       5.40000000      10.80000000       5.40000000      55.84500000      119        4
Fe       5.40000000      12.60000000       3.60000000      55.84500000      120        4
Co       3.60000000      10.80000000       7.20000000      58.93319400      121        1
Mn       3.60000000      12.60000000       9.00000000      54.93804400      122        5
Fe       5.40000000      10.80000000       9.00000000      55.84500000      123        4
Cr       5.40000000      12.60000000       7.20000000      51.99610000      124        3
Ni       3.60000000      10.80000000      10.80000000      58.69340000      125        2
Ni       3.60000000      12.60000000      12.60000000      58.69340000      126        2
Ni       5.40000000      10.80000000      12.60000000      58.69340000      127        2
Mn       5.40000000      12.60000000      10.80000000      54.93804400      128        5
Mn       7.20000000       0.00000000       0.00000000      54.93804400      129        5
Fe       7.20000000       1.80000000       1.80000000      55.84500000      130        4
Mn       9.00000000       0.00000000       1.80000000      54.93804400      131        5
Cr       9.00000000       1.80000000       0.00000000      51.99610000      132        3
Mn       7.20000000       0.00000000       3.60000000      54.93804400      133        5
Cr       7.20000000       1.80000000       5.40000000      51.99610000      134        3
Fe       9.00000000       0.00000000       5.40000000      55.84500000      135        4
Cr       9.00000000       1.80000000       3.60000000      51.99610000      136        3
Co       7.20000000       0.00000000       7.20000000      58.93319400      137        1
Mn       7.20000000       1.80000000       9.00000000      54.93804400      138        5
Ni       9.00000000       0.00000000       9.00000000      58.69340000      139        2
Co       9.00000000       1.80000000       7.20000000      58.93319400      140        1
Fe       7.20000000       0.00000000      10.80000000      55.84500000      141        4
Cr       7.20000000       1.80000000      12.60000000      51.99610000      142        3
Fe       9.00000000       0.00000000      12.60000000      55.84500000      143        4
Mn       9.00000000       1.80000000      10.80000000      54.93804400      144        5
Co       7.20000000       3.60000000       0.00000000      58.93319400      145        1
Cr       7.20000000       5.40000000       1.80000000      51.99610000      146        3
Co       9.00000000       3.60000000       1.80000000      58.93319400      147        1
Cr       9.00000000       5.40000000       0.00000000      51.99610000      148        3
Co       7.20000000       3.60000000       3.60000000      58.93319400      149        1
Cr       7.20000000       5.40000000       5.40000000      51.99610000      150        3
Cr       9.00000000       3.60000000       5.40000000      51.99610000      151        3
Co       9.00000000       5.40000000       3.60000000      58.93319400      152        1
Fe       7.20000000       3.60000000       7.20000000      55.84500000      153        4
Mn       7.20000000       5.40000000       9.00000000      54.93804400      154        5
Fe       9.00000000       3.60000000       9.00000000      55.84500000      155        4
Co       9.00000000       5.40000000       7.20000000      58.93319400      156        1
Fe       7.20000000       3.60000000      10.80000000      55.84500000      157        4
Co       7.20000000       5.40000000      12.60000000      58.93319400      158        1
Co       9.00000000       3.60000000      12.60000000      58.93319400      159        1
Cr       9.00000000       5.40000000      10.80000000      51.99610000      160        3
Mn       7.20000000       7.20000000       0.00000000      54.93804400      161        5
Fe       7.20000000       9.00000000       1.80000000      55.84500000      162        4
Co       9.00000000       7.20000000       1.80000000      58.93319400      163        1
Fe       9.00000000       9.00000000       0.00000000      55.84500000      164        4
Co       7.20000000       7.20000000       3.60000000      58.93319400      165        1
Co       7.20000000       9.00000000       5.40000000      58.93319400      166        1
Co       9.00000000       7.20000000       5.40000000      58.93319400      167        1
Fe       9.00000000       9.00000000       3.60000000      55.84500000      168        4
Cr       7.20000000       7.20000000       7.20000000      51.99610000      169        3
Co       7.20000000       9.00000000       9.00000000      58.93319400      170        1
Cr       9.00000000       7.20000000       9.00000000      51.99610000      171        3
Cr       9.00000000       9.00000000       7.20000000      51.99610000      172        3
Fe       7.20000000       7.20000000      10.80000000      55.84500000      173        4
Ni       7.20000000       9.00000000      12.60000000      58.69340000      174        2
Ni       9.00000000       7.20000000      12.60000000      58.69340000      175        2
Mn       9.00000000       9.00000000      10.80000000      54.93804400      176        5
Mn       7.20000000      10.80000000       0.00000000      54.93804400      177        5
Ni       7.20000000      12.60000000       1.80000000      58.69340000      178        2
Mn       9.00000000      10.80000000       1.80000000      54.93804400      179        5
Fe       9.00000000      12.60000000       0.00000000      55.84500000      180        4
Ni       7.20000000      10.80000000       3.60000000      58.69340000      181        2
Co       7.20000000      12.60000000       5.40000000      58.93319400      182        1
Mn       9.00000000      10.80000000       5.40000000      54.93804400      183        5
Ni       9.00000000      12.60000000       3.60000000      58.69340000      184        2
Cr       7.20000000      10.80000000       7.20000000      51.99610000      185        3
Mn       7.20000000      12.60000000       9.00000000      54.93804400      186        5
Ni       9.00000000      10.80000000       9.00000000      58.69340000      187        2
Ni       9.00000000      12.60000000       7.20000000      58.69340000      188        2
Ni       7.20000000      10.80000000      10.80000000      58.69340000      189        2
Mn       7.20000000      12.60000000      12.60000000      54.93804400      190        5
Mn       9.00000000      10.80000000      12.60000000      54.93804400      191        5
Mn       9.00000000      12.60000000      10.80000000      54.93804400      192        5
Cr      10.80000000       0.00000000       0.00000000      51.99610000      193        3
Cr      10.80000000       1.80000000       1.80000000      51.99610000      194        3
Fe      12.60000000       0.00000000       1.80000000      55.84500000      195        4
Co      12.60000000       1.80000000       0.00000000      58.93319400      196        1
Fe      10.80000000       0.00000000       3.60000000      55.84500000      197        4
Mn      10.80000000       1.80000000       5.40000000      54.93804400      198        5
Ni      12.60000000       0.00000000       5.40000000      58.69340000      199        2
Mn      12.60000000       1.80000000       3.60000000      54.93804400      200        5
Mn      10.80000000       0.00000000       7.20000000      54.93804400      201        5
Co      10.80000000       1.80000000       9.00000000      58.93319400      202        1
Ni      12.60000000       0.00000000       9.00000000      58.69340000      203        2
Ni      12.60000000       1.80000000       7.20000000      58.69340000      204        2
Ni      10.80000000       0.00000000      10.80000000      58.69340000      205        2
Co      10.80000000       1.80000000      12.60000000      58.93319400      206        1
Ni      12.60000000       0.00000000      12.60000000      58.69340000      207        2
Co      12.60000000       1.80000000      10.80000000      58.93319400      208        1
Cr      10.80000000       3.60000000       0.00000000      51.99610000      209        3
Cr      10.80000000       5.40000000       1.80000000      51.99610000      210        3
Co      12.60000000       3.60000000       1.80000000      58.93319400      211        1
Co      12.60000000       5.40000000       0.00000000      58.93319400      212        1
Fe      10.80000000       3.60000000       3.60000000      55.84500000      213        4
Cr      10.80000000       5.40000000       5.40000000      51.99610000      214        3
Mn      12.60000000       3.60000000       5.40000000      54.93804400      215        5
Co      12.60000000       5.40000000       3.60000000      58.93319400      216        1
Fe      10.80000000       3.60000000       7.20000000      55.84500000      217        4
Co      10.80000000       5.40000000       9.00000000      58.93319400      218        1
Cr      12.60000000       3.60000000       9.00000000      51.99610000      219        3
Co      12.60000000       5.40000000       7.20000000      58.93319400      220        1
Cr      10.80000000       3.60000000      10.80000000      51.99610000      221        3
Co      10.80000000       5.40000000      12.60000000      58.93319400      222        1
Cr      12.60000000       3.60000000      12.60000000      51.99610000      223        3
Cr      12.60000000       5.40000000      10.80000000      51.99610000      224        3
Cr      10.80000000       7.20000000       0.00000000      51.99610000      225        3
Cr      10.80000000       9.00000000       1.80000000      51.99610000      226        3
Cr      12.60000000       7.20000000       1.80000000      51.99610000      227        3
Co      12.60000000       9.00000000       0.00000000      58.93319400      228        1
Cr      10.80000000       7.20000000       3.60000000      51.99610000      229        3
Mn      10.80000000       9.00000000       5.40000000      54.93804400      230        5
Fe      12.60000000       7.20000000       5.40000000      55.84500000      231        4
Co      12.60000000       9.00000000       3.60000000      58.93319400      232        1
Fe      10.80000000       7.20000000       7.20000000      55.84500000      233        4
Mn      10.80000000       9.00000000       9.00000000      54.93804400      234        5
Cr      12.60000000       7.20000000       9.00000000      51.99610000      235        3
Co      12.60000000       9.00000000       7.20000000      58.93319400      236        1
Fe      10.80000000       7.20000000      10.80000000      55.84500000      237        4
Mn      10.80000000       9.00000000      12.60000000      54.93804400      238        5
Cr      12.60000000       7.20000000      12.60000000      51.99610000      239        3
Co      12.60000000       9.00000000      10.80000000      58.93319400      240        1
Fe      10.80000000      10.80000000       0.00000000      55.84500000      241        4
Co      10.80000000      12.60000000       1.80000000      58.93319400      242        1
Cr      12.60000000      10.80000000       1.80000000      51.99610000      243        3
Mn      12.60000000      12.60000000       0.00000000      54.93804400      244        5
Fe      10.80000000      10.80000000       3.60000000      55.84500000      245        4
Ni      10.80000000      12.60000000       5.40000000      58.69340000      246        2
Fe      12.60000000      10.80000000       5.40000000      55.84500000      247        4
Co      12.60000000      12.60000000       3.60000000      58.93319400      248        1
Ni      10.80000000      10.80000000       7.20000000      58.69340000      249        2
Mn      10.80000000      12.60000000       9.00000000      54.93804400      250        5
Ni      12.60000000      10.80000000       9.00000000      58.69340000      251        2
Mn      12.60000000      12.60000000       7.20000000      54.93804400      252        5
Ni      10.80000000      10.80000000      10.80000000      58.69340000      253        2
Mn      10.80000000      12.60000000      12.60000000      54.93804400      254        5
Ni      12.60000000      10.80000000      12.60000000      58.69340000      255        2
Mn      12.60000000      12.60000000      10.80000000      54.93804400      256        5
