256
Lattice="14.4 0.0 0.0 0.0 14.4 0.0 0.0 0.0 14.4" Properties=species:S:1:pos:R:3:masses:R:1:id:I:1:type:I:1 comment="(written by ASE)" energy=-1025.98736203394 pbc="T T T"
Mn       0.00000000       0.00000000       0.00000000      54.93804400        1        5
Ni       0.00000000       1.80000000       1.80000000      58.69340000        2        2
Cr       1.80000000       0.00000000       1.80000000      51.99610000        3        3
Ni       1.80000000       1.80000000       0.00000000      58.69340000        4        2
Fe       0.00000000       0.00000000       3.60000000      55.84500000        5        4
Co       0.00000000       1.80000000       5.40000000      58.93319400        6        1
Co       1.80000000       0.00000000       5.40000000      58.93319400        7        1
Mn       1.80000000       1.80000000       3.60000000      54.93804400        8        5
Co       0.00000000       0.00000000       7.20000000      58.93319400        9        1
Fe       0.00000000       1.80000000       9.00000000      55.84500000       10        4
Fe       1.80000000       0.00000000       9.00000000      55.84500000       11        4
Mn       1.80000000       1.80000000       7.20000000      54.93804400       12        5
Cr       0.00000000       0.00000000      10.80000000      51.99610000       13        3
Cr       0.00000000       1.80000000      12.60000000      51.99610000       14        3
Ni       1.80000000       0.00000000      12.60000000      58.69340000       15        2
Mn       1.80000000       1.80000000      10.80000000      54.93804400       16        5
Mn       0.00000000       3.60000000       0.00000000      54.93804400       17        5
Ni       0.00000000       5.40000000       1.80000000      58.69340000       18        2
Cr       1.80000000       3.60000000       1.80000000      51.99610000       19        3
Mn       1.80000000       5.40000000       0.00000000      54.93804400       20        5
Fe       0.00000000       3.60000000       3.60000000      55.84500000       21        4
Mn       0.00000000       5.40000000       5.40000000      54.93804400       22        5
Cr       1.80000000       3.60000000       5.40000000      51.99610000       23        3
Ni       1.80000000       5.40000000       3.60000000      58.69340000       24        2
Fe       0.00000000       3.60000000       7.20000000      55.84500000       25        4
Mn       0.00000000       5.40000000       9.00000000      54.93804400       26        5
Co       1.80000000       3.60000000       9.00000000      58.93319400       27        1
Fe       1.80000000       5.40000000       7.20000000      55.84500000       28        4
Fe       0.00000000       3.60000000      10.80000000      55.84500000       29        4
Cr       0.00000000       5.40000000      12.60000000      51.99610000       30        3
Ni       1.80000000       3.60000000      12.60000000      58.69340000       31        2
Cr       1.80000000       5.40000000      10.80000000      51.99610000       32        3
Fe       0.00000000       7.20000000       0.00000000      55.84500000       33        4
Mn       0.00000000       9.00000000       1.80000000      54.93804400       34        5
Mn       1.80000000       7.20000000       1.80000000      54.93804400       35        5
Fe       1.80000000       9.00000000       0.00000000      55.84500000       36        4
Ni       0.00000000       7.20000000       3.60000000      58.69340000       37        2
Mn       0.00000000       9.00000000       5.40000000      54.93804400       38        5
Cr       1.80000000       7.20000000       5.40000000      51.99610000       39        3
Fe       1.80000000       9.00000000       3.60000000      55.84500000       40        4
Fe       0.00000000       7.20000000       7.20000000      55.84500000       41        4
Co       0.00000000       9.00000000       9.00000000      58.93319400       42        1
Co       1.80000000       7.20000000       9.00000000      58.93319400       43        1
Fe       1.80000000       9.00000000       7.20000000      55.84500000       44        4
Fe       0.00000000       7.20000000      10.80000000      55.84500000       45        4
Co       0.00000000       9.00000000      12.60000000      58.93319400       46        1
Mn       1.80000000       7.20000000      12.60000000      54.93804400       47        5
Co       1.80000000       9.00000000      10.80000000      58.93319400       48        1
Cr       0.00000000      10.80000000       0.00000000      51.99610000       49        3
Ni       0.00000000      12.60000000       1.80000000      58.69340000       50        2
Mn       1.80000000      10.80000000       1.80000000      54.93804400       51        5
Fe       1.80000000      12.60000000       0.00000000      55.84500000       52        4
Ni       0.00000000      10.80000000       3.60000000      58.69340000       53        2
Mn       0.00000000      12.60000000       5.40000000      54.93804400       54        5
Cr       1.80000000      10.80000000       5.40000000      51.99610000       55        3
Ni       1.80000000      12.60000000       3.60000000      58.69340000       56        2
Co       0.00000000      10.80000000       7.20000000      58.93319400       57        1
Mn       0.00000000      12.60000000       9.00000000      54.93804400       58        5
Mn       1.80000000      10.80000000       9.00000000      54.93804400       59        5
Fe       1.80000000      12.60000000       7.20000000      55.84500000       60        4
Mn       0.00000000      10.80000000      10.80000000      54.93804400       61        5
Ni       0.00000000      12.60000000      12.60000000      58.69340000       62        2
Fe       1.80000000      10.80000000      12.60000000      55.84500000       63        4
Cr       1.80000000      12.60000000      10.80000000      51.99610000       64        3
Mn       3.60000000       0.00000000       0.00000000      54.93804400       65        5
Cr       3.60000000       1.80000000       1.80000000      51.99610000       66        3
Ni       5.40000000       0.00000000       1.80000000      58.69340000       67        2
Mn       5.40000000       1.80000000       0.00000000      54.93804400       68        5
Ni       3.60000000       0.00000000       3.60000000      58.69340000       69        2
Fe       3.60000000       1.80000000       5.40000000      55.84500000       70        4
Fe       5.40000000       0.00000000       5.40000000      55.84500000       71        4
Cr       5.40000000       1.80000000       3.60000000      51.99610000       72        3
Co       3.60000000       0.00000000       7.20000000      58.93319400       73        1
Co       3.60000000       1.80000000       9.00000000      58.93319400       74        1
Co       5.40000000       0.00000000       9.00000000      58.93319400       75        1
Mn       5.40000000       1.80000000       7.20000000      54.93804400       76        5
Co       3.60000000       0.00000000      10.80000000      58.93319400       77        1
Fe       3.60000000       1.80000000      12.60000000      55.84500000       78        4
Cr       5.40000000       0.00000000      12.60000000      51.99610000       79        3
Co       5.40000000       1.80000000      10.80000000      58.93319400       80        1
Ni       3.60000000       3.60000000       0.00000000      58.69340000       81        2
Cr       3.60000000       5.40000000       1.80000000      51.99610000       82        3
Ni       5.40000000       3.60000000       1.80000000      58.69340000       83        2
Mn       5.40000000       5.40000000       0.00000000      54.93804400       84        5
Ni       3.60000000       3.60000000       3.60000000      58.69340000       85        2
Fe       3.60000000       5.40000000       5.40000000      55.84500000       86        4
Mn       5.40000000       3.60000000       5.40000000      54.93804400       87        5
Cr       5.40000000       5.40000000       3.60000000      51.99610000       88        3
Fe       3.60000000       3.60000000       7.20000000      55.84500000       89        4
Fe       3.60000000       5.40000000       9.00000000      55.84500000       90        4
Co       5.40000000       3.60000000       9.00000000      58.93319400       91        1
Mn       5.40000000       5.40000000       7.20000000      54.93804400       92        5
Mn       3.60000000       3.60000000      10.80000000      54.93804400       93        5
Ni       3.60000000       5.40000000      12.60000000      58.69340000       94        2
Cr       5.40000000       3.60000000      12.60000000      51.99610000       95        3
Ni       5.40000000       5.40000000      10.80000000      58.69340000       96        2
Fe       3.60000000       7.20000000       0.00000000      55.84500000       97        4
Co       3.60000000       9.00000000       1.80000000      58.93319400       98        1
Ni       5.40000000       7.20000000       1.80000000      58.69340000       99        2
Fe       5.40000000       9.00000000       0.00000000      55.84500000      100        4
Ni       3.60000000       7.20000000       3.60000000      58.69340000      101        2
Fe       3.60000000       9.00000000       5.40000000      55.84500000      102        4
Cr       5.40000000       7.20000000       5.40000000      51.99610000      103        3
Cr       5.40000000       9.00000000       3.60000000      51.99610000      104        3
Mn       3.60000000       7.20000000       7.20000000      54.93804400      105        5
Fe       3.60000000       9.00000000       9.00000000      55.84500000      106        4
Cr       5.40000000       7.20000000       9.00000000      51.99610000      107        3
Ni       5.40000000       9.00000000       7.20000000      58.69340000      108        2
Mn       3.60000000       7.20000000      10.80000000      54.93804400      109        5
Mn       3.60000000       9.00000000      12.60000000      54.93804400      110        5
Cr       5.40000000       7.20000000      12.60000000      51.99610000      111        3
Fe       5.40000000       9.00000000      10.80000000      55.84500000      112        4
Co       3.60000000      10.80000000       0.00000000      58.93319400      113        1
Cr       3.60000000      12.60000000       1.80000000      51.99610000      114        3
Mn       5.40000000      10.80000000       1.80000000      54.93804400      115        5
Fe       5.40000000      12.60000000       0.00000000      55.84500000      116        4
Ni       3.60000000      10.80000000       3.60000000      58.69340000      117        2
Mn       3.60000000      12.60000000       5.40000000      54.93804400      118        5
Mn       5.40000000      10.80000000       5.40000000      54.93804400      119        5
Cr       5.40000000      12.60000000       3.60000000      51.99610000      120        3
Cr       3.60000000      10.80000000       7.20000000      51.99610000      121        3
Mn       3.60000000      12.60000000       9.00000000      54.93804400      122        5
Mn       5.40000000      10.80000000       9.00000000      54.93804400      123        5
Fe       5.40000000      12.60000000       7.20000000      55.84500000      124        4
Fe       3.60000000      10.80000000      10.80000000      55.84500000      125        4
Mn       3.60000000      12.60000000      12.60000000      54.93804400      126        5
Co       5.40000000      10.80000000      12.60000000      58.93319400      127        1
Fe       5.40000000      12.60000000      10.80000000      55.84500000      128        4
Cr       7.20000000       0.00000000       0.00000000      51.99610000      129        3
Ni       7.20000000       1.80000000       1.80000000      58.69340000      130        2
Cr       9.00000000       0.00000000       1.80000000      51.99610000      131        3
Ni       9.00000000       1.80000000       0.00000000      58.69340000      132        2
Mn       7.20000000       0.00000000       3.60000000      54.93804400      133        5
Co       7.20000000       1.80000000       5.40000000      58.93319400      134        1
Co       9.00000000       0.00000000       5.40000000      58.93319400      135        1
Fe       9.00000000       1.80000000       3.60000000      55.84500000      136        4
Co       7.20000000       0.00000000       7.20000000      58.93319400      137        1
Co       7.20000000       1.80000000       9.00000000      58.93319400      138        1
Co       9.00000000       0.00000000       9.00000000      58.93319400      139        1
Co       9.00000000       1.80000000       7.20000000      58.93319400      140        1
Mn       7.20000000       0.00000000      10.80000000      54.93804400      141        5
Ni       7.20000000       1.80000000      12.60000000      58.69340000      142        2
Cr       9.00000000       0.00000000      12.60000000      51.99610000      143        3
Co       9.00000000       1.80000000      10.80000000      58.93319400      144        1
Cr       7.20000000       3.60000000       0.00000000      51.99610000      145        3
Fe       7.20000000       5.40000000       1.80000000      55.84500000      146        4
Cr       9.00000000       3.60000000       1.80000000      51.99610000      147        3
Mn       9.00000000       5.40000000       0.00000000      54.93804400      148        5
Mn       7.20000000       3.60000000       3.60000000      54.93804400      149        5
Cr       7.20000000       5.40000000       5.40000000      51.99610000      150        3
Fe       9.00000000       3.60000000       5.40000000      55.84500000      151        4
Cr       9.00000000       5.40000000       3.60000000      51.99610000      152        3
Fe       7.20000000       3.60000000       7.20000000      55.84500000      153        4
Cr       7.20000000       5.40000000       9.00000000      51.99610000      154        3
Co       9.00000000       3.60000000       9.00000000      58.93319400      155        1
Mn       9.00000000       5.40000000       7.20000000      54.93804400      156        5
Mn       7.20000000       3.60000000      10.80000000      54.93804400      157        5
Fe       7.20000000       5.40000000      12.60000000      55.84500000      158        4
Ni       9.00000000       3.60000000      12.60000000      58.69340000      159        2
Mn       9.00000000       5.40000000      10.80000000      54.93804400      160        5
Cr       7.20000000       7.20000000       0.00000000      51.99610000      161        3
Ni       7.20000000       9.00000000       1.80000000      58.69340000      162        2
Ni       9.00000000       7.20000000       1.80000000      58.69340000      163        2
Cr       9.00000000       9.00000000       0.00000000      51.99610000      164        3
Mn       7.20000000       7.20000000       3.60000000      54.93804400      165        5
Ni       7.20000000       9.00000000       5.40000000      58.69340000      166        2
Fe       9.00000000       7.20000000       5.40000000      55.84500000      167        4
Cr       9.00000000       9.00000000       3.60000000      51.99610000      168        3
Ni       7.20000000       7.20000000       7.20000000      58.69340000      169        2
Mn       7.20000000       9.00000000       9.00000000      54.93804400      170        5
Cr       9.00000000       7.20000000       9.00000000      51.99610000      171        3
Fe       9.00000000       9.00000000       7.20000000      55.84500000      172        4
Fe       7.20000000       7.20000000      10.80000000      55.84500000      173        4
Mn       7.20000000       9.00000000      12.60000000      54.93804400      174        5
Ni       9.00000000       7.20000000      12.60000000      58.69340000      175        2
Mn       9.00000000       9.00000000      10.80000000      54.93804400      176        5
Ni       7.20000000      10.80000000       0.00000000      58.69340000      177        2
Ni       7.20000000      12.60000000       1.80000000      58.69340000      178        2
Cr       9.00000000      10.80000000       1.80000000      51.99610000      179        3
Ni       9.00000000      12.60000000       0.00000000      58.69340000      180        2
Ni       7.20000000      10.80000000       3.60000000      58.69340000      181        2
Co       7.20000000      12.60000000       5.40000000      58.93319400      182        1
Mn       9.00000000      10.80000000       5.40000000      54.93804400      183        5
Fe       9.00000000      12.60000000       3.60000000      55.84500000      184        4
Co       7.20000000      10.80000000       7.20000000      58.93319400      185        1
Co       7.20000000      12.60000000       9.00000000      58.93319400      186        1
Co       9.00000000      10.80000000       9.00000000      58.93319400      187        1
Co       9.00000000      12.60000000       7.20000000      58.93319400      188        1
Fe       7.20000000      10.80000000      10.80000000      55.84500000      189        4
Mn       7.20000000      12.60000000      12.60000000      54.93804400      190        5
Cr       9.00000000      10.80000000      12.60000000      51.99610000      191        3
Fe       9.00000000      12.60000000      10.80000000      55.84500000      192        4
Ni      10.80000000       0.00000000       0.00000000      58.69340000      193        2
Fe      10.80000000       1.80000000       1.80000000      55.84500000      194        4
Cr      12.60000000       0.00000000       1.80000000      51.99610000      195        3
Fe      12.60000000       1.80000000       0.00000000      55.84500000      196        4
Fe      10.80000000       0.00000000       3.60000000      55.84500000      197        4
Co      10.80000000       1.80000000       5.40000000      58.93319400      198        1
Co      12.60000000       0.00000000       5.40000000      58.93319400      199        1
Mn      12.60000000       1.80000000       3.60000000      54.93804400      200        5
Co      10.80000000       0.00000000       7.20000000      58.93319400      201        1
Co      10.80000000       1.80000000       9.00000000      58.93319400      202        1
Fe      12.60000000       0.00000000       9.00000000      55.84500000      203        4
Mn      12.60000000       1.80000000       7.20000000      54.93804400      204        5
Co      10.80000000       0.00000000      10.80000000      58.93319400      205        1
Fe      10.80000000       1.80000000      12.60000000      55.84500000      206        4
Ni      12.60000000       0.00000000      12.60000000      58.69340000      207        2
Mn      12.60000000       1.80000000      10.80000000      54.93804400      208        5
Mn      10.80000000       3.60000000       0.00000000      54.93804400      209        5
Ni      10.80000000       5.40000000       1.80000000      58.69340000      210        2
Cr      12.60000000       3.60000000       1.80000000      51.99610000      211        3
Ni      12.60000000       5.40000000       0.00000000      58.69340000      212        2
Mn      10.80000000       3.60000000       3.60000000      54.93804400      213        5
Co      10.80000000       5.40000000       5.40000000      58.93319400      214        1
Co      12.60000000       3.60000000       5.40000000      58.93319400      215        1
Ni      12.60000000       5.40000000       3.60000000      58.69340000      216        2
Fe      10.80000000       3.60000000       7.20000000      55.84500000      217        4
Co      10.80000000       5.40000000       9.00000000      58.93319400      218        1
Co      12.60000000       3.60000000       9.00000000      58.93319400      219        1
Co      12.60000000       5.40000000       7.20000000      58.93319400      220        1
Co      10.80000000       3.60000000      10.80000000      58.93319400      221        1
Cr      10.80000000       5.40000000      12.60000000      51.99610000      222        3
Ni      12.60000000       3.60000000      12.60000000      58.69340000      223        2
Mn      12.60000000       5.40000000      10.80000000      54.93804400      224        5
Ni      10.80000000       7.20000000       0.00000000      58.69340000      225        2
Fe      10.80000000       9.00000000       1.80000000      55.84500000      226        4
Cr      12.60000000       7.20000000       1.80000000      51.99610000      227        3
Ni      12.60000000       9.00000000       0.00000000      58.69340000      228        2
Mn      10.80000000       7.20000000       3.60000000      54.93804400      229        5
Mn      10.80000000       9.00000000       5.40000000      54.93804400      230        5
Co      12.60000000       7.20000000       5.40000000      58.93319400      231        1
Cr      12.60000000       9.00000000       3.60000000      51.99610000      232        3
Co      10.80000000       7.20000000       7.20000000      58.93319400      233        1
Mn      10.80000000       9.00000000       9.00000000      54.93804400      234        5
Co      12.60000000       7.20000000       9.00000000      58.93319400      235        1
Co      12.60000000       9.00000000       7.20000000      58.93319400      236        1
Fe      10.80000000       7.20000000      10.80000000      55.84500000      237        4
Mn      10.80000000       9.00000000      12.60000000      54.93804400      238        5
Cr      12.60000000       7.20000000      12.60000000      51.99610000      239        3
Mn      12.60000000       9.00000000      10.80000000      54.93804400      240        5
Fe      10.80000000      10.80000000       0.00000000      55.84500000      241        4
Mn      10.80000000      12.60000000       1.80000000      54.93804400      242        5
Cr      12.60000000      10.80000000       1.80000000      51.99610000      243        3
Cr      12.60000000      12.60000000       0.00000000      51.99610000      244        3
Ni      10.80000000      10.80000000       3.60000000      58.69340000      245        2
Co      10.80000000      12.60000000       5.40000000      58.93319400      246        1
Fe      12.60000000      10.80000000       5.40000000      55.84500000      247        4
Mn      12.60000000      12.60000000       3.60000000      54.93804400      248        5
Co      10.80000000      10.80000000       7.20000000      58.93319400      249        1
Mn      10.80000000      12.60000000       9.00000000      54.93804400      250        5
Fe      12.60000000      10.80000000       9.00000000      55.84500000      251        4
Co      12.60000000      12.60000000       7.20000000      58.93319400      252        1
Cr      10.80000000      10.80000000      10.80000000      51.99610000      253        3
Ni      10.80000000      12.60000000      12.60000000      58.69340000      254        2
Ni      12.60000000      10.80000000      12.60000000      58.69340000      255        2
Mn      12.60000000      12.60000000      10.80000000      54.93804400      256        5
