256
Lattice="14.4 0.0 0.0 0.0 14.4 0.0 0.0 0.0 14.4" Properties=species:S:1:pos:R:3:masses:R:1:id:I:1:type:I:1 comment="(written by ASE)" energy=-1020.44832041419 pbc="T T T"
Mn       0.00000000       0.00000000       0.00000000      54.93804400        1        5
Mn       0.00000000       1.80000000       1.80000000      54.93804400        2        5
Mn       1.80000000       0.00000000       1.80000000      54.93804400        3        5
Mn       1.80000000       1.80000000       0.00000000      54.93804400        4        5
Mn       0.00000000       0.00000000       3.60000000      54.93804400        5        5
Mn       0.00000000       1.80000000       5.40000000      54.93804400        6        5
Fe       1.80000000       0.00000000       5.40000000      55.84500000        7        4
Mn       1.80000000       1.80000000       3.60000000      54.93804400        8        5
Cr       0.00000000       0.00000000       7.20000000      51.99610000        9        3
Mn       0.00000000       1.80000000       9.00000000      54.93804400       10        5
Co       1.80000000       0.00000000       9.00000000      58.93319400       11        1
Co       1.80000000       1.80000000       7.20000000      58.93319400       12        1
Mn       0.00000000       0.00000000      10.80000000      54.93804400       13        5
Mn       0.00000000       1.80000000      12.60000000      54.93804400       14        5
Mn       1.80000000       0.00000000      12.60000000      54.93804400       15        5
Mn       1.80000000       1.80000000      10.80000000      54.93804400       16        5
Mn       0.00000000       3.60000000       0.00000000      54.93804400       17        5
Cr       0.00000000       5.40000000       1.80000000      51.99610000       18        3
Ni       1.80000000       3.60000000       1.80000000      58.69340000       19        2
Mn       1.80000000       5.40000000       0.00000000      54.93804400       20        5
Mn       0.00000000       3.60000000       3.60000000      54.93804400       21        5
Co       0.00000000       5.40000000       5.40000000      58.93319400       22        1
Co       1.80000000       3.60000000       5.40000000      58.93319400       23        1
Fe       1.80000000       5.40000000       3.60000000      55.84500000       24        4
Co       0.00000000       3.60000000       7.20000000      58.93319400       25        1
Co       0.00000000       5.40000000       9.00000000      58.93319400       26        1
Co       1.80000000       3.60000000       9.00000000      58.93319400       27        1
Co       1.80000000       5.40000000       7.20000000      58.93319400       28        1
Mn       0.00000000       3.60000000      10.80000000      54.93804400       29        5
Ni       0.00000000       5.40000000      12.60000000      58.69340000       30        2
Mn       1.80000000       3.60000000      12.60000000      54.93804400       31        5
Fe       1.80000000       5.40000000      10.80000000      55.84500000       32        4
Ni       0.00000000       7.20000000       0.00000000      58.69340000       33        2
Fe       0.00000000       9.00000000       1.80000000      55.84500000       34        4
Cr       1.80000000       7.20000000       1.80000000      51.99610000       35        3
Fe       1.80000000       9.00000000       0.00000000      55.84500000       36        4
Ni       0.00000000       7.20000000       3.60000000      58.69340000       37        2
Fe       0.00000000       9.00000000       5.40000000      55.84500000       38        4
Co       1.80000000       7.20000000       5.40000000      58.93319400       39        1
Fe       1.80000000       9.00000000       3.60000000      55.84500000       40        4
Co       0.00000000       7.20000000       7.20000000      58.93319400       41        1
Co       0.00000000       9.00000000       9.00000000      58.93319400       42        1
Co       1.80000000       7.20000000       9.00000000      58.93319400       43        1
Co       1.80000000       9.00000000       7.20000000      58.93319400       44        1
Cr       0.00000000       7.20000000      10.80000000      51.99610000       45        3
Ni       0.00000000       9.00000000      12.60000000      58.69340000       46        2
Fe       1.80000000       7.20000000      12.60000000      55.84500000       47        4
Co       1.80000000       9.00000000      10.80000000      58.93319400       48        1
Cr       0.00000000      10.80000000       0.00000000      51.99610000       49        3
Mn       0.00000000      12.60000000       1.80000000      54.93804400       50        5
Ni       1.80000000      10.80000000       1.80000000      58.69340000       51        2
Mn       1.80000000      12.60000000       0.00000000      54.93804400       52        5
Cr       0.00000000      10.80000000       3.60000000      51.99610000       53        3
Ni       0.00000000      12.60000000       5.40000000      58.69340000       54        2
Fe       1.80000000      10.80000000       5.40000000      55.84500000       55        4
Ni       1.80000000      12.60000000       3.60000000      58.69340000       56        2
Cr       0.00000000      10.80000000       7.20000000      51.99610000       57        3
Co       0.00000000      12.60000000       9.00000000      58.93319400       58        1
Co       1.80000000      10.80000000       9.00000000      58.93319400       59        1
Co       1.80000000      12.60000000       7.20000000      58.93319400       60        1
Cr       0.00000000      10.80000000      10.80000000      51.99610000       61        3
Ni       0.00000000      12.60000000      12.60000000      58.69340000       62        2
Fe       1.80000000      10.80000000      12.60000000      55.84500000       63        4
Fe       1.80000000      12.60000000      10.80000000      55.84500000       64        4
Mn       3.60000000       0.00000000       0.00000000      54.93804400       65        5
Mn       3.60000000       1.80000000       1.80000000      54.93804400       66        5
Cr       5.40000000       0.00000000       1.80000000      51.99610000       67        3
Ni       5.40000000       1.80000000       0.00000000      58.69340000       68        2
Cr       3.60000000       0.00000000       3.60000000      51.99610000       69        3
Fe       3.60000000       1.80000000       5.40000000      55.84500000       70        4
Cr       5.40000000       0.00000000       5.40000000      51.99610000       71        3
Fe       5.40000000       1.80000000       3.60000000      55.84500000       72        4
Co       3.60000000       0.00000000       7.20000000      58.93319400       73        1
Co       3.60000000       1.80000000       9.00000000      58.93319400       74        1
Co       5.40000000       0.00000000       9.00000000      58.93319400       75        1
Co       5.40000000       1.80000000       7.20000000      58.93319400       76        1
Fe       3.60000000       0.00000000      10.80000000      55.84500000       77        4
Mn       3.60000000       1.80000000      12.60000000      54.93804400       78        5
Fe       5.40000000       0.00000000      12.60000000      55.84500000       79        4
Fe       5.40000000       1.80000000      10.80000000      55.84500000       80        4
Mn       3.60000000       3.60000000       0.00000000      54.93804400       81        5
Cr       3.60000000       5.40000000       1.80000000      51.99610000       82        3
Cr       5.40000000       3.60000000       1.80000000      51.99610000       83        3
Ni       5.40000000       5.40000000       0.00000000      58.69340000       84        2
Ni       3.60000000       3.60000000       3.60000000      58.69340000       85        2
Co       3.60000000       5.40000000       5.40000000      58.93319400       86        1
Cr       5.40000000       3.60000000       5.40000000      51.99610000       87        3
Fe       5.40000000       5.40000000       3.60000000      55.84500000       88        4
Co       3.60000000       3.60000000       7.20000000      58.93319400       89        1
Cr       3.60000000       5.40000000       9.00000000      51.99610000       90        3
Ni       5.40000000       3.60000000       9.00000000      58.69340000       91        2
Fe       5.40000000       5.40000000       7.20000000      55.84500000       92        4
Cr       3.60000000       3.60000000      10.80000000      51.99610000       93        3
Cr       3.60000000       5.40000000      12.60000000      51.99610000       94        3
Fe       5.40000000       3.60000000      12.60000000      55.84500000       95        4
Ni       5.40000000       5.40000000      10.80000000      58.69340000       96        2
Fe       3.60000000       7.20000000       0.00000000      55.84500000       97        4
Co       3.60000000       9.00000000       1.80000000      58.93319400       98        1
Fe       5.40000000       7.20000000       1.80000000      55.84500000       99        4
Co       5.40000000       9.00000000       0.00000000      58.93319400      100        1
Fe       3.60000000       7.20000000       3.60000000      55.84500000      101        4
Co       3.60000000       9.00000000       5.40000000      58.93319400      102        1
Fe       5.40000000       7.20000000       5.40000000      55.84500000      103        4
Co       5.40000000       9.00000000       3.60000000      58.93319400      104        1
Co       3.60000000       7.20000000       7.20000000      58.93319400      105        1
Co       3.60000000       9.00000000       9.00000000      58.93319400      106        1
Co       5.40000000       7.20000000       9.00000000      58.93319400      107        1
Co       5.40000000       9.00000000       7.20000000      58.93319400      108        1
Co       3.60000000       7.20000000      10.80000000      58.93319400      109        1
Co       3.60000000       9.00000000      12.60000000      58.93319400      110        1
Cr       5.40000000       7.20000000      12.60000000      51.99610000      111        3
Co       5.40000000       9.00000000      10.80000000      58.93319400      112        1
Co       3.60000000      10.80000000       0.00000000      58.93319400      113        1
Mn       3.60000000      12.60000000       1.80000000      54.93804400      114        5
Co       5.40000000      10.80000000       1.80000000      58.93319400      115        1
Co       5.40000000      12.60000000       0.00000000      58.93319400      116        1
Cr       3.60000000      10.80000000       3.60000000      51.99610000      117        3
Fe       3.60000000      12.60000000       5.40000000      55.84500000      118        4
Co       5.40000000      10.80000000       5.40000000      58.93319400      119        1
Fe       5.40000000      12.60000000       3.60000000      55.84500000      120        4
Co       3.60000000      10.80000000       7.20000000      58.93319400      121        1
Co       3.60000000      12.60000000       9.00000000      58.93319400      122        1
Co       5.40000000      10.80000000       9.00000000      58.93319400      123        1
Co       5.40000000      12.60000000       7.20000000      58.93319400      124        1
Co       3.60000000      10.80000000      10.80000000      58.93319400      125        1
Ni       3.60000000      12.60000000      12.60000000      58.69340000      126        2
Fe       5.40000000      10.80000000      12.60000000      55.84500000      127        4
Cr       5.40000000      12.60000000      10.80000000      51.99610000      128        3
Fe       7.20000000       0.00000000       0.00000000      55.84500000      129        4
Fe       7.20000000       1.80000000       1.80000000      55.84500000      130        4
Fe       9.00000000       0.00000000       1.80000000      55.84500000      131        4
Cr       9.00000000       1.80000000       0.00000000      51.99610000      132        3
Ni       7.20000000       0.00000000       3.60000000      58.69340000      133        2
Ni       7.20000000       1.80000000       5.40000000      58.69340000      134        2
Mn       9.00000000       0.00000000       5.40000000      54.93804400      135        5
Cr       9.00000000       1.80000000       3.60000000      51.99610000      136        3
Fe       7.20000000       0.00000000       7.20000000      55.84500000      137        4
Fe       7.20000000       1.80000000       9.00000000      55.84500000      138        4
Cr       9.00000000       0.00000000       9.00000000      51.99610000      139        3
Cr       9.00000000       1.80000000       7.20000000      51.99610000      140        3
Fe       7.20000000       0.00000000      10.80000000      55.84500000      141        4
Ni       7.20000000       1.80000000      12.60000000      58.69340000      142        2
Ni       9.00000000       0.00000000      12.60000000      58.69340000      143        2
Mn       9.00000000       1.80000000      10.80000000      54.93804400      144        5
Cr       7.20000000       3.60000000       0.00000000      51.99610000      145        3
Ni       7.20000000       5.40000000       1.80000000      58.69340000      146        2
Fe       9.00000000       3.60000000       1.80000000      55.84500000      147        4
Ni       9.00000000       5.40000000       0.00000000      58.69340000      148        2
Fe       7.20000000       3.60000000       3.60000000      55.84500000      149        4
Cr       7.20000000       5.40000000       5.40000000      51.99610000      150        3
Ni       9.00000000       3.60000000       5.40000000      58.69340000      151        2
Fe       9.00000000       5.40000000       3.60000000      55.84500000      152        4
Cr       7.20000000       3.60000000       7.20000000      51.99610000      153        3
Mn       7.20000000       5.40000000       9.00000000      54.93804400      154        5
Ni       9.00000000       3.60000000       9.00000000      58.69340000      155        2
Mn       9.00000000       5.40000000       7.20000000      54.93804400      156        5
Cr       7.20000000       3.60000000      10.80000000      51.99610000      157        3
Fe       7.20000000       5.40000000      12.60000000      55.84500000      158        4
Ni       9.00000000       3.60000000      12.60000000      58.69340000      159        2
Mn       9.00000000       5.40000000      10.80000000      54.93804400      160        5
Fe       7.20000000       7.20000000       0.00000000      55.84500000      161        4
Fe       7.20000000       9.00000000       1.80000000      55.84500000      162        4
Fe       9.00000000       7.20000000       1.80000000      55.84500000      163        4
Cr       9.00000000       9.00000000       0.00000000      51.99610000      164        3
Fe       7.20000000       7.20000000       3.60000000      55.84500000      165        4
Cr       7.20000000       9.00000000       5.40000000      51.99610000      166        3
Ni       9.00000000       7.20000000       5.40000000      58.69340000      167        2
Cr       9.00000000       9.00000000       3.60000000      51.99610000      168        3
Co       7.20000000       7.20000000       7.20000000      58.93319400      169        1
Cr       7.20000000       9.00000000       9.00000000      51.99610000      170        3
Mn       9.00000000       7.20000000       9.00000000      54.93804400      171        5
Fe       9.00000000       9.00000000       7.20000000      55.84500000      172        4
Mn       7.20000000       7.20000000      10.80000000      54.93804400      173        5
Ni       7.20000000       9.00000000      12.60000000      58.69340000      174        2
Cr       9.00000000       7.20000000      12.60000000      51.99610000      175        3
Mn       9.00000000       9.00000000      10.80000000      54.93804400      176        5
Co       7.20000000      10.80000000       0.00000000      58.93319400      177        1
Co       7.20000000      12.60000000       1.80000000      58.93319400      178        1
Cr       9.00000000      10.80000000       1.80000000      51.99610000      179        3
Co       9.00000000      12.60000000       0.00000000      58.93319400      180        1
Fe       7.20000000      10.80000000       3.60000000      55.84500000      181        4
Fe       7.20000000      12.60000000       5.40000000      55.84500000      182        4
Ni       9.00000000      10.80000000       5.40000000      58.69340000      183        2
Mn       9.00000000      12.60000000       3.60000000      54.93804400      184        5
Fe       7.20000000      10.80000000       7.20000000      55.84500000      185        4
Co       7.20000000      12.60000000       9.00000000      58.93319400      186        1
Ni       9.00000000      10.80000000       9.00000000      58.69340000      187        2
Cr       9.00000000      12.60000000       7.20000000      51.99610000      188        3
Co       7.20000000      10.80000000      10.80000000      58.93319400      189        1
Fe       7.20000000      12.60000000      12.60000000      55.84500000      190        4
Mn       9.00000000      10.80000000      12.60000000      54.93804400      191        5
Fe       9.00000000      12.60000000      10.80000000      55.84500000      192        4
Ni      10.80000000       0.00000000       0.00000000      58.69340000      193        2
Ni      10.80000000       1.80000000       1.80000000      58.69340000      194        2
Mn      12.60000000       0.00000000       1.80000000      54.93804400      195        5
Mn      12.60000000       1.80000000       0.00000000      54.93804400      196        5
Mn      10.80000000       0.00000000       3.60000000      54.93804400      197        5
Mn      10.80000000       1.80000000       5.40000000      54.93804400      198        5
Mn      12.60000000       0.00000000       5.40000000      54.93804400      199        5
Mn      12.60000000       1.80000000       3.60000000      54.93804400      200        5
Mn      10.80000000       0.00000000       7.20000000      54.93804400      201        5
Ni      10.80000000       1.80000000       9.00000000      58.69340000      202        2
Cr      12.60000000       0.00000000       9.00000000      51.99610000      203        3
Mn      12.60000000       1.80000000       7.20000000      54.93804400      204        5
Ni      10.80000000       0.00000000      10.80000000      58.69340000      205        2
Mn      10.80000000       1.80000000      12.60000000      54.93804400      206        5
Ni      12.60000000       0.00000000      12.60000000      58.69340000      207        2
Mn      12.60000000       1.80000000      10.80000000      54.93804400      208        5
Mn      10.80000000       3.60000000       0.00000000      54.93804400      209        5
Cr      10.80000000       5.40000000       1.80000000      51.99610000      210        3
Mn      12.60000000       3.60000000       1.80000000      54.93804400      211        5
Ni      12.60000000       5.40000000       0.00000000      58.69340000      212        2
Ni      10.80000000       3.60000000       3.60000000      58.69340000      213        2
Mn      10.80000000       5.40000000       5.40000000      54.93804400      214        5
Mn      12.60000000       3.60000000       5.40000000      54.93804400      215        5
Mn      12.60000000       5.40000000       3.60000000      54.93804400      216        5
Mn      10.80000000       3.60000000       7.20000000      54.93804400      217        5
Mn      10.80000000       5.40000000       9.00000000      54.93804400      218        5
Mn      12.60000000       3.60000000       9.00000000      54.93804400      219        5
Cr      12.60000000       5.40000000       7.20000000      51.99610000      220        3
Mn      10.80000000       3.60000000      10.80000000      54.93804400      221        5
Cr      10.80000000       5.40000000      12.60000000      51.99610000      222        3
Mn      12.60000000       3.60000000      12.60000000      54.93804400      223        5
Ni      12.60000000       5.40000000      10.80000000      58.69340000      224        2
Ni      10.80000000       7.20000000       0.00000000      58.69340000      225        2
Fe      10.80000000       9.00000000       1.80000000      55.84500000      226        4
Fe      12.60000000       7.20000000       1.80000000      55.84500000      227        4
Cr      12.60000000       9.00000000       0.00000000      51.99610000      228        3
Ni      10.80000000       7.20000000       3.60000000      58.69340000      229        2
Cr      10.80000000       9.00000000       5.40000000      51.99610000      230        3
Cr      12.60000000       7.20000000       5.40000000      51.99610000      231        3
Ni      12.60000000       9.00000000       3.60000000      58.69340000      232        2
Ni      10.80000000       7.20000000       7.20000000      58.69340000      233        2
Ni      10.80000000       9.00000000       9.00000000      58.69340000      234        2
Fe      12.60000000       7.20000000       9.00000000      55.84500000      235        4
Fe      12.60000000       9.00000000       7.20000000      55.84500000      236        4
Ni      10.80000000       7.20000000      10.80000000      58.69340000      237        2
Mn      10.80000000       9.00000000      12.60000000      54.93804400      238        5
Cr      12.60000000       7.20000000      12.60000000      51.99610000      239        3
Fe      12.60000000       9.00000000      10.80000000      55.84500000      240        4
Mn      10.80000000      10.80000000       0.00000000      54.93804400      241        5
Mn      10.80000000      12.60000000       1.80000000      54.93804400      242        5
Ni      12.60000000      10.80000000       1.80000000      58.69340000      243        2
Cr      12.60000000      12.60000000       0.00000000      51.99610000      244        3
Mn      10.80000000      10.80000000       3.60000000      54.93804400      245        5
Mn      10.80000000      12.60000000       5.40000000      54.93804400      246        5
Mn      12.60000000      10.80000000       5.40000000      54.93804400      247        5
Mn      12.60000000      12.60000000       3.60000000      54.93804400      248        5
Cr      10.80000000      10.80000000       7.20000000      51.99610000      249        3
Ni      10.80000000      12.60000000       9.00000000      58.69340000      250        2
Fe      12.60000000      10.80000000       9.00000000      55.84500000      251        4
Ni      12.60000000      12.60000000       7.20000000      58.69340000      252        2
Cr      10.80000000      10.80000000      10.80000000      51.99610000      253        3
Fe      10.80000000      12.60000000      12.60000000      55.84500000      254        4
Ni      12.60000000      10.80000000      12.60000000      58.69340000      255        2
Cr      12.60000000      12.60000000      10.80000000      51.99610000      256        3
