256
Lattice="14.4 0.0 0.0 0.0 14.4 0.0 0.0 0.0 14.4" Properties=species:S:1:pos:R:3:masses:R:1:id:I:1:type:I:1 comment="(written by ASE)" energy=-1027.7450552751 pbc="T T T"
Mn       0.00000000       0.00000000       0.00000000      54.93804400        1        5
Mn       0.00000000       1.80000000       1.80000000      54.93804400        2        5
Co       1.80000000       0.00000000       1.80000000      58.93319400        3        1
Co       1.80000000       1.80000000       0.00000000      58.93319400        4        1
Mn       0.00000000       0.00000000       3.60000000      54.93804400        5        5
Co       0.00000000       1.80000000       5.40000000      58.93319400        6        1
Ni       1.80000000       0.00000000       5.40000000      58.69340000        7        2
Co       1.80000000       1.80000000       3.60000000      58.93319400        8        1
Cr       0.00000000       0.00000000       7.20000000      51.99610000        9        3
Mn       0.00000000       1.80000000       9.00000000      54.93804400       10        5
Ni       1.80000000       0.00000000       9.00000000      58.69340000       11        2
Fe       1.80000000       1.80000000       7.20000000      55.84500000       12        4
Cr       0.00000000       0.00000000      10.80000000      51.99610000       13        3
Ni       0.00000000       1.80000000      12.60000000      58.69340000       14        2
Fe       1.80000000       0.00000000      12.60000000      55.84500000       15        4
Co       1.80000000       1.80000000      10.80000000      58.93319400       16        1
Fe       0.00000000       3.60000000       0.00000000      55.84500000       17        4
Cr       0.00000000       5.40000000       1.80000000      51.99610000       18        3
Co       1.80000000       3.60000000       1.80000000      58.93319400       19        1
Fe       1.80000000       5.40000000       0.00000000      55.84500000       20        4
Ni       0.00000000       3.60000000       3.60000000      58.69340000       21        2
Fe       0.00000000       5.40000000       5.40000000      55.84500000       22        4
Fe       1.80000000       3.60000000       5.40000000      55.84500000       23        4
Cr       1.80000000       5.40000000       3.60000000      51.99610000       24        3
Co       0.00000000       3.60000000       7.20000000      58.93319400       25        1
Co       0.00000000       5.40000000       9.00000000      58.93319400       26        1
Co       1.80000000       3.60000000       9.00000000      58.93319400       27        1
Fe       1.80000000       5.40000000       7.20000000      55.84500000       28        4
Fe       0.00000000       3.60000000      10.80000000      55.84500000       29        4
Ni       0.00000000       5.40000000      12.60000000      58.69340000       30        2
Co       1.80000000       3.60000000      12.60000000      58.93319400       31        1
Fe       1.80000000       5.40000000      10.80000000      55.84500000       32        4
Cr       0.00000000       7.20000000       0.00000000      51.99610000       33        3
Mn       0.00000000       9.00000000       1.80000000      54.93804400       34        5
Cr       1.80000000       7.20000000       1.80000000      51.99610000       35        3
Ni       1.80000000       9.00000000       0.00000000      58.69340000       36        2
Ni       0.00000000       7.20000000       3.60000000      58.69340000       37        2
Co       0.00000000       9.00000000       5.40000000      58.93319400       38        1
Ni       1.80000000       7.20000000       5.40000000      58.69340000       39        2
Cr       1.80000000       9.00000000       3.60000000      51.99610000       40        3
Co       0.00000000       7.20000000       7.20000000      58.93319400       41        1
Co       0.00000000       9.00000000       9.00000000      58.93319400       42        1
Co       1.80000000       7.20000000       9.00000000      58.93319400       43        1
Fe       1.80000000       9.00000000       7.20000000      55.84500000       44        4
Co       0.00000000       7.20000000      10.80000000      58.93319400       45        1
Fe       0.00000000       9.00000000      12.60000000      55.84500000       46        4
Co       1.80000000       7.20000000      12.60000000      58.93319400       47        1
Fe       1.80000000       9.00000000      10.80000000      55.84500000       48        4
Co       0.00000000      10.80000000       0.00000000      58.93319400       49        1
Mn       0.00000000      12.60000000       1.80000000      54.93804400       50        5
Mn       1.80000000      10.80000000       1.80000000      54.93804400       51        5
Ni       1.80000000      12.60000000       0.00000000      58.69340000       52        2
Mn       0.00000000      10.80000000       3.60000000      54.93804400       53        5
Cr       0.00000000      12.60000000       5.40000000      51.99610000       54        3
Ni       1.80000000      10.80000000       5.40000000      58.69340000       55        2
Co       1.80000000      12.60000000       3.60000000      58.93319400       56        1
Mn       0.00000000      10.80000000       7.20000000      54.93804400       57        5
Cr       0.00000000      12.60000000       9.00000000      51.99610000       58        3
Ni       1.80000000      10.80000000       9.00000000      58.69340000       59        2
Fe       1.80000000      12.60000000       7.20000000      55.84500000       60        4
Ni       0.00000000      10.80000000      10.80000000      58.69340000       61        2
Mn       0.00000000      12.60000000      12.60000000      54.93804400       62        5
Fe       1.80000000      10.80000000      12.60000000      55.84500000       63        4
Fe       1.80000000      12.60000000      10.80000000      55.84500000       64        4
Fe       3.60000000       0.00000000       0.00000000      55.84500000       65        4
Co       3.60000000       1.80000000       1.80000000      58.93319400       66        1
Co       5.40000000       0.00000000       1.80000000      58.93319400       67        1
Ni       5.40000000       1.80000000       0.00000000      58.69340000       68        2
Fe       3.60000000       0.00000000       3.60000000      55.84500000       69        4
Co       3.60000000       1.80000000       5.40000000      58.93319400       70        1
Fe       5.40000000       0.00000000       5.40000000      55.84500000       71        4
Fe       5.40000000       1.80000000       3.60000000      55.84500000       72        4
Co       3.60000000       0.00000000       7.20000000      58.93319400       73        1
Fe       3.60000000       1.80000000       9.00000000      55.84500000       74        4
Co       5.40000000       0.00000000       9.00000000      58.93319400       75        1
Fe       5.40000000       1.80000000       7.20000000      55.84500000       76        4
Co       3.60000000       0.00000000      10.80000000      58.93319400       77        1
Co       3.60000000       1.80000000      12.60000000      58.93319400       78        1
Fe       5.40000000       0.00000000      12.60000000      55.84500000       79        4
Co       5.40000000       1.80000000      10.80000000      58.93319400       80        1
Fe       3.60000000       3.60000000       0.00000000      55.84500000       81        4
Ni       3.60000000       5.40000000       1.80000000      58.69340000       82        2
Cr       5.40000000       3.60000000       1.80000000      51.99610000       83        3
Cr       5.40000000       5.40000000       0.00000000      51.99610000       84        3
Fe       3.60000000       3.60000000       3.60000000      55.84500000       85        4
Cr       3.60000000       5.40000000       5.40000000      51.99610000       86        3
Ni       5.40000000       3.60000000       5.40000000      58.69340000       87        2
Cr       5.40000000       5.40000000       3.60000000      51.99610000       88        3
Ni       3.60000000       3.60000000       7.20000000      58.69340000       89        2
Co       3.60000000       5.40000000       9.00000000      58.93319400       90        1
Ni       5.40000000       3.60000000       9.00000000      58.69340000       91        2
Cr       5.40000000       5.40000000       7.20000000      51.99610000       92        3
Fe       3.60000000       3.60000000      10.80000000      55.84500000       93        4
Ni       3.60000000       5.40000000      12.60000000      58.69340000       94        2
Fe       5.40000000       3.60000000      12.60000000      55.84500000       95        4
Cr       5.40000000       5.40000000      10.80000000      51.99610000       96        3
Fe       3.60000000       7.20000000       0.00000000      55.84500000       97        4
Ni       3.60000000       9.00000000       1.80000000      58.69340000       98        2
Mn       5.40000000       7.20000000       1.80000000      54.93804400       99        5
Cr       5.40000000       9.00000000       0.00000000      51.99610000      100        3
Mn       3.60000000       7.20000000       3.60000000      54.93804400      101        5
Fe       3.60000000       9.00000000       5.40000000      55.84500000      102        4
Ni       5.40000000       7.20000000       5.40000000      58.69340000      103        2
Co       5.40000000       9.00000000       3.60000000      58.93319400      104        1
Fe       3.60000000       7.20000000       7.20000000      55.84500000      105        4
Co       3.60000000       9.00000000       9.00000000      58.93319400      106        1
Ni       5.40000000       7.20000000       9.00000000      58.69340000      107        2
Co       5.40000000       9.00000000       7.20000000      58.93319400      108        1
Fe       3.60000000       7.20000000      10.80000000      55.84500000      109        4
Ni       3.60000000       9.00000000      12.60000000      58.69340000      110        2
Cr       5.40000000       7.20000000      12.60000000      51.99610000      111        3
Fe       5.40000000       9.00000000      10.80000000      55.84500000      112        4
Cr       3.60000000      10.80000000       0.00000000      51.99610000      113        3
Fe       3.60000000      12.60000000       1.80000000      55.84500000      114        4
Fe       5.40000000      10.80000000       1.80000000      55.84500000      115        4
Ni       5.40000000      12.60000000       0.00000000      58.69340000      116        2
Co       3.60000000      10.80000000       3.60000000      58.93319400      117        1
Fe       3.60000000      12.60000000       5.40000000      55.84500000      118        4
Fe       5.40000000      10.80000000       5.40000000      55.84500000      119        4
Co       5.40000000      12.60000000       3.60000000      58.93319400      120        1
Co       3.60000000      10.80000000       7.20000000      58.93319400      121        1
Fe       3.60000000      12.60000000       9.00000000      55.84500000      122        4
Fe       5.40000000      10.80000000       9.00000000      55.84500000      123        4
Co       5.40000000      12.60000000       7.20000000      58.93319400      124        1
Co       3.60000000      10.80000000      10.80000000      58.93319400      125        1
Co       3.60000000      12.60000000      12.60000000      58.93319400      126        1
Fe       5.40000000      10.80000000      12.60000000      55.84500000      127        4
Ni       5.40000000      12.60000000      10.80000000      58.69340000      128        2
Fe       7.20000000       0.00000000       0.00000000      55.84500000      129        4
Ni       7.20000000       1.80000000       1.80000000      58.69340000      130        2
Mn       9.00000000       0.00000000       1.80000000      54.93804400      131        5
Mn       9.00000000       1.80000000       0.00000000      54.93804400      132        5
Fe       7.20000000       0.00000000       3.60000000      55.84500000      133        4
Co       7.20000000       1.80000000       5.40000000      58.93319400      134        1
Co       9.00000000       0.00000000       5.40000000      58.93319400      135        1
Mn       9.00000000       1.80000000       3.60000000      54.93804400      136        5
Co       7.20000000       0.00000000       7.20000000      58.93319400      137        1
Co       7.20000000       1.80000000       9.00000000      58.93319400      138        1
Ni       9.00000000       0.00000000       9.00000000      58.69340000      139        2
Fe       9.00000000       1.80000000       7.20000000      55.84500000      140        4
Mn       7.20000000       0.00000000      10.80000000      54.93804400      141        5
Ni       7.20000000       1.80000000      12.60000000      58.69340000      142        2
Mn       9.00000000       0.00000000      12.60000000      54.93804400      143        5
Mn       9.00000000       1.80000000      10.80000000      54.93804400      144        5
Mn       7.20000000       3.60000000       0.00000000      54.93804400      145        5
Ni       7.20000000       5.40000000       1.80000000      58.69340000      146        2
Mn       9.00000000       3.60000000       1.80000000      54.93804400      147        5
Cr       9.00000000       5.40000000       0.00000000      51.99610000      148        3
Fe       7.20000000       3.60000000       3.60000000      55.84500000      149        4
Cr       7.20000000       5.40000000       5.40000000      51.99610000      150        3
Ni       9.00000000       3.60000000       5.40000000      58.69340000      151        2
Fe       9.00000000       5.40000000       3.60000000      55.84500000      152        4
Mn       7.20000000       3.60000000       7.20000000      54.93804400      153        5
Cr       7.20000000       5.40000000       9.00000000      51.99610000      154        3
Ni       9.00000000       3.60000000       9.00000000      58.69340000      155        2
Cr       9.00000000       5.40000000       7.20000000      51.99610000      156        3
Fe       7.20000000       3.60000000      10.80000000      55.84500000      157        4
Cr       7.20000000       5.40000000      12.60000000      51.99610000      158        3
Cr       9.00000000       3.60000000      12.60000000      51.99610000      159        3
Cr       9.00000000       5.40000000      10.80000000      51.99610000      160        3
Mn       7.20000000       7.20000000       0.00000000      54.93804400      161        5
Ni       7.20000000       9.00000000       1.80000000      58.69340000      162        2
Mn       9.00000000       7.20000000       1.80000000      54.93804400      163        5
Mn       9.00000000       9.00000000       0.00000000      54.93804400      164        5
Mn       7.20000000       7.20000000       3.60000000      54.93804400      165        5
Mn       7.20000000       9.00000000       5.40000000      54.93804400      166        5
Ni       9.00000000       7.20000000       5.40000000      58.69340000      167        2
Mn       9.00000000       9.00000000       3.60000000      54.93804400      168        5
Cr       7.20000000       7.20000000       7.20000000      51.99610000      169        3
Mn       7.20000000       9.00000000       9.00000000      54.93804400      170        5
Ni       9.00000000       7.20000000       9.00000000      58.69340000      171        2
Cr       9.00000000       9.00000000       7.20000000      51.99610000      172        3
Cr       7.20000000       7.20000000      10.80000000      51.99610000      173        3
Ni       7.20000000       9.00000000      12.60000000      58.69340000      174        2
Cr       9.00000000       7.20000000      12.60000000      51.99610000      175        3
Cr       9.00000000       9.00000000      10.80000000      51.99610000      176        3
Fe       7.20000000      10.80000000       0.00000000      55.84500000      177        4
Mn       7.20000000      12.60000000       1.80000000      54.93804400      178        5
Co       9.00000000      10.80000000       1.80000000      58.93319400      179        1
Ni       9.00000000      12.60000000       0.00000000      58.69340000      180        2
Mn       7.20000000      10.80000000       3.60000000      54.93804400      181        5
Co       7.20000000      12.60000000       5.40000000      58.93319400      182        1
Mn       9.00000000      10.80000000       5.40000000      54.93804400      183        5
Ni       9.00000000      12.60000000       3.60000000      58.69340000      184        2
Ni       7.20000000      10.80000000       7.20000000      58.69340000      185        2
Mn       7.20000000      12.60000000       9.00000000      54.93804400      186        5
Cr       9.00000000      10.80000000       9.00000000      51.99610000      187        3
Mn       9.00000000      12.60000000       7.20000000      54.93804400      188        5
Mn       7.20000000      10.80000000      10.80000000      54.93804400      189        5
Co       7.20000000      12.60000000      12.60000000      58.93319400      190        1
Mn       9.00000000      10.80000000      12.60000000      54.93804400      191        5
Mn       9.00000000      12.60000000      10.80000000      54.93804400      192        5
Mn      10.80000000       0.00000000       0.00000000      54.93804400      193        5
Ni      10.80000000       1.80000000       1.80000000      58.69340000      194        2
Mn      12.60000000       0.00000000       1.80000000      54.93804400      195        5
Cr      12.60000000       1.80000000       0.00000000      51.99610000      196        3
Mn      10.80000000       0.00000000       3.60000000      54.93804400      197        5
Co      10.80000000       1.80000000       5.40000000      58.93319400      198        1
Mn      12.60000000       0.00000000       5.40000000      54.93804400      199        5
Mn      12.60000000       1.80000000       3.60000000      54.93804400      200        5
Ni      10.80000000       0.00000000       7.20000000      58.69340000      201        2
Co      10.80000000       1.80000000       9.00000000      58.93319400      202        1
Mn      12.60000000       0.00000000       9.00000000      54.93804400      203        5
Fe      12.60000000       1.80000000       7.20000000      55.84500000      204        4
Ni      10.80000000       0.00000000      10.80000000      58.69340000      205        2
Cr      10.80000000       1.80000000      12.60000000      51.99610000      206        3
Cr      12.60000000       0.00000000      12.60000000      51.99610000      207        3
Mn      12.60000000       1.80000000      10.80000000      54.93804400      208        5
Cr      10.80000000       3.60000000       0.00000000      51.99610000      209        3
Mn      10.80000000       5.40000000       1.80000000      54.93804400      210        5
Mn      12.60000000       3.60000000       1.80000000      54.93804400      211        5
Cr      12.60000000       5.40000000       0.00000000      51.99610000      212        3
Co      10.80000000       3.60000000       3.60000000      58.93319400      213        1
Fe      10.80000000       5.40000000       5.40000000      55.84500000      214        4
Co      12.60000000       3.60000000       5.40000000      58.93319400      215        1
Mn      12.60000000       5.40000000       3.60000000      54.93804400      216        5
Fe      10.80000000       3.60000000       7.20000000      55.84500000      217        4
Cr      10.80000000       5.40000000       9.00000000      51.99610000      218        3
Ni      12.60000000       3.60000000       9.00000000      58.69340000      219        2
Fe      12.60000000       5.40000000       7.20000000      55.84500000      220        4
Mn      10.80000000       3.60000000      10.80000000      54.93804400      221        5
Cr      10.80000000       5.40000000      12.60000000      51.99610000      222        3
Cr      12.60000000       3.60000000      12.60000000      51.99610000      223        3
Fe      12.60000000       5.40000000      10.80000000      55.84500000      224        4
Cr      10.80000000       7.20000000       0.00000000      51.99610000      225        3
Ni      10.80000000       9.00000000       1.80000000      58.69340000      226        2
Mn      12.60000000       7.20000000       1.80000000      54.93804400      227        5
Mn      12.60000000       9.00000000       0.00000000      54.93804400      228        5
Co      10.80000000       7.20000000       3.60000000      58.93319400      229        1
Mn      10.80000000       9.00000000       5.40000000      54.93804400      230        5
Co      12.60000000       7.20000000       5.40000000      58.93319400      231        1
Mn      12.60000000       9.00000000       3.60000000      54.93804400      232        5
Mn      10.80000000       7.20000000       7.20000000      54.93804400      233        5
Cr      10.80000000       9.00000000       9.00000000      51.99610000      234        3
Ni      12.60000000       7.20000000       9.00000000      58.69340000      235        2
Mn      12.60000000       9.00000000       7.20000000      54.93804400      236        5
Fe      10.80000000       7.20000000      10.80000000      55.84500000      237        4
Ni      10.80000000       9.00000000      12.60000000      58.69340000      238        2
Cr      12.60000000       7.20000000      12.60000000      51.99610000      239        3
Fe      12.60000000       9.00000000      10.80000000      55.84500000      240        4
Mn      10.80000000      10.80000000       0.00000000      54.93804400      241        5
Mn      10.80000000      12.60000000       1.80000000      54.93804400      242        5
Mn      12.60000000      10.80000000       1.80000000      54.93804400      243        5
Mn      12.60000000      12.60000000       0.00000000      54.93804400      244        5
Mn      10.80000000      10.80000000       3.60000000      54.93804400      245        5
Mn      10.80000000      12.60000000       5.40000000      54.93804400      246        5
Ni      12.60000000      10.80000000       5.40000000      58.69340000      247        2
Mn      12.60000000      12.60000000       3.60000000      54.93804400      248        5
Cr      10.80000000      10.80000000       7.20000000      51.99610000      249        3
Cr      10.80000000      12.60000000       9.00000000      51.99610000      250        3
Fe      12.60000000      10.80000000       9.00000000      55.84500000      251        4
Cr      12.60000000      12.60000000       7.20000000      51.99610000      252        3
Cr      10.80000000      10.80000000      10.80000000      51.99610000      253        3
Mn      10.80000000      12.60000000      12.60000000      54.93804400      254        5
Ni      12.60000000      10.80000000      12.60000000      58.69340000      255        2
Cr      12.60000000      12.60000000      10.80000000      51.99610000      256        3
