256
Lattice="14.4 0.0 0.0 0.0 14.4 0.0 0.0 0.0 14.4" Properties=species:S:1:pos:R:3:masses:R:1:id:I:1:type:I:1 comment="(written by ASE)" energy=-1025.98018771094 pbc="T T T"
Fe       0.00000000       0.00000000       0.00000000      55.84500000        1        4
Co       0.00000000       1.80000000       1.80000000      58.93319400        2        1
Fe       1.80000000       0.00000000       1.80000000      55.84500000        3        4
Co       1.80000000       1.80000000       0.00000000      58.93319400        4        1
Fe       0.00000000       0.00000000       3.60000000      55.84500000        5        4
Ni       0.00000000       1.80000000       5.40000000      58.69340000        6        2
Cr       1.80000000       0.00000000       5.40000000      51.99610000        7        3
Co       1.80000000       1.80000000       3.60000000      58.93319400        8        1
Fe       0.00000000       0.00000000       7.20000000      55.84500000        9        4
Ni       0.00000000       1.80000000       9.00000000      58.69340000       10        2
Mn       1.80000000       0.00000000       9.00000000      54.93804400       11        5
Mn       1.80000000       1.80000000       7.20000000      54.93804400       12        5
Cr       0.00000000       0.00000000      10.80000000      51.99610000       13        3
Fe       0.00000000       1.80000000      12.60000000      55.84500000       14        4
Cr       1.80000000       0.00000000      12.60000000      51.99610000       15        3
Fe       1.80000000       1.80000000      10.80000000      55.84500000       16        4
Fe       0.00000000       3.60000000       0.00000000      55.84500000       17        4
Fe       0.00000000       5.40000000       1.80000000      55.84500000       18        4
Co       1.80000000       3.60000000       1.80000000      58.93319400       19        1
Fe       1.80000000       5.40000000       0.00000000      55.84500000       20        4
Fe       0.00000000       3.60000000       3.60000000      55.84500000       21        4
Co       0.00000000       5.40000000       5.40000000      58.93319400       22        1
Fe       1.80000000       3.60000000       5.40000000      55.84500000       23        4
Fe       1.80000000       5.40000000       3.60000000      55.84500000       24        4
Cr       0.00000000       3.60000000       7.20000000      51.99610000       25        3
Mn       0.00000000       5.40000000       9.00000000      54.93804400       26        5
Ni       1.80000000       3.60000000       9.00000000      58.69340000       27        2
Fe       1.80000000       5.40000000       7.20000000      55.84500000       28        4
Mn       0.00000000       3.60000000      10.80000000      54.93804400       29        5
Mn       0.00000000       5.40000000      12.60000000      54.93804400       30        5
Co       1.80000000       3.60000000      12.60000000      58.93319400       31        1
Fe       1.80000000       5.40000000      10.80000000      55.84500000       32        4
Mn       0.00000000       7.20000000       0.00000000      54.93804400       33        5
Fe       0.00000000       9.00000000       1.80000000      55.84500000       34        4
Mn       1.80000000       7.20000000       1.80000000      54.93804400       35        5
Ni       1.80000000       9.00000000       0.00000000      58.69340000       36        2
Co       0.00000000       7.20000000       3.60000000      58.93319400       37        1
Co       0.00000000       9.00000000       5.40000000      58.93319400       38        1
Co       1.80000000       7.20000000       5.40000000      58.93319400       39        1
Co       1.80000000       9.00000000       3.60000000      58.93319400       40        1
Fe       0.00000000       7.20000000       7.20000000      55.84500000       41        4
Co       0.00000000       9.00000000       9.00000000      58.93319400       42        1
Co       1.80000000       7.20000000       9.00000000      58.93319400       43        1
Co       1.80000000       9.00000000       7.20000000      58.93319400       44        1
Ni       0.00000000       7.20000000      10.80000000      58.69340000       45        2
Mn       0.00000000       9.00000000      12.60000000      54.93804400       46        5
Mn       1.80000000       7.20000000      12.60000000      54.93804400       47        5
Fe       1.80000000       9.00000000      10.80000000      55.84500000       48        4
Mn       0.00000000      10.80000000       0.00000000      54.93804400       49        5
Mn       0.00000000      12.60000000       1.80000000      54.93804400       50        5
Mn       1.80000000      10.80000000       1.80000000      54.93804400       51        5
Fe       1.80000000      12.60000000       0.00000000      55.84500000       52        4
Fe       0.00000000      10.80000000       3.60000000      55.84500000       53        4
Mn       0.00000000      12.60000000       5.40000000      54.93804400       54        5
Co       1.80000000      10.80000000       5.40000000      58.93319400       55        1
Ni       1.80000000      12.60000000       3.60000000      58.69340000       56        2
Co       0.00000000      10.80000000       7.20000000      58.93319400       57        1
Co       0.00000000      12.60000000       9.00000000      58.93319400       58        1
Co       1.80000000      10.80000000       9.00000000      58.93319400       59        1
Co       1.80000000      12.60000000       7.20000000      58.93319400       60        1
Ni       0.00000000      10.80000000      10.80000000      58.69340000       61        2
Mn       0.00000000      12.60000000      12.60000000      54.93804400       62        5
Fe       1.80000000      10.80000000      12.60000000      55.84500000       63        4
Cr       1.80000000      12.60000000      10.80000000      51.99610000       64        3
Co       3.60000000       0.00000000       0.00000000      58.93319400       65        1
Co       3.60000000       1.80000000       1.80000000      58.93319400       66        1
Fe       5.40000000       0.00000000       1.80000000      55.84500000       67        4
Co       5.40000000       1.80000000       0.00000000      58.93319400       68        1
Co       3.60000000       0.00000000       3.60000000      58.93319400       69        1
Co       3.60000000       1.80000000       5.40000000      58.93319400       70        1
Fe       5.40000000       0.00000000       5.40000000      55.84500000       71        4
Co       5.40000000       1.80000000       3.60000000      58.93319400       72        1
Fe       3.60000000       0.00000000       7.20000000      55.84500000       73        4
Mn       3.60000000       1.80000000       9.00000000      54.93804400       74        5
Fe       5.40000000       0.00000000       9.00000000      55.84500000       75        4
Mn       5.40000000       1.80000000       7.20000000      54.93804400       76        5
Co       3.60000000       0.00000000      10.80000000      58.93319400       77        1
Co       3.60000000       1.80000000      12.60000000      58.93319400       78        1
Fe       5.40000000       0.00000000      12.60000000      55.84500000       79        4
Co       5.40000000       1.80000000      10.80000000      58.93319400       80        1
Co       3.60000000       3.60000000       0.00000000      58.93319400       81        1
Cr       3.60000000       5.40000000       1.80000000      51.99610000       82        3
Co       5.40000000       3.60000000       1.80000000      58.93319400       83        1
Fe       5.40000000       5.40000000       0.00000000      55.84500000       84        4
Co       3.60000000       3.60000000       3.60000000      58.93319400       85        1
Mn       3.60000000       5.40000000       5.40000000      54.93804400       86        5
Fe       5.40000000       3.60000000       5.40000000      55.84500000       87        4
Ni       5.40000000       5.40000000       3.60000000      58.69340000       88        2
Ni       3.60000000       3.60000000       7.20000000      58.69340000       89        2
Co       3.60000000       5.40000000       9.00000000      58.93319400       90        1
Cr       5.40000000       3.60000000       9.00000000      51.99610000       91        3
Mn       5.40000000       5.40000000       7.20000000      54.93804400       92        5
Fe       3.60000000       3.60000000      10.80000000      55.84500000       93        4
Co       3.60000000       5.40000000      12.60000000      58.93319400       94        1
Co       5.40000000       3.60000000      12.60000000      58.93319400       95        1
Co       5.40000000       5.40000000      10.80000000      58.93319400       96        1
Mn       3.60000000       7.20000000       0.00000000      54.93804400       97        5
Ni       3.60000000       9.00000000       1.80000000      58.69340000       98        2
Fe       5.40000000       7.20000000       1.80000000      55.84500000       99        4
Fe       5.40000000       9.00000000       0.00000000      55.84500000      100        4
Cr       3.60000000       7.20000000       3.60000000      51.99610000      101        3
Cr       3.60000000       9.00000000       5.40000000      51.99610000      102        3
Ni       5.40000000       7.20000000       5.40000000      58.69340000      103        2
Cr       5.40000000       9.00000000       3.60000000      51.99610000      104        3
Cr       3.60000000       7.20000000       7.20000000      51.99610000      105        3
Co       3.60000000       9.00000000       9.00000000      58.93319400      106        1
Co       5.40000000       7.20000000       9.00000000      58.93319400      107        1
Cr       5.40000000       9.00000000       7.20000000      51.99610000      108        3
Co       3.60000000       7.20000000      10.80000000      58.93319400      109        1
Fe       3.60000000       9.00000000      12.60000000      55.84500000      110        4
Co       5.40000000       7.20000000      12.60000000      58.93319400      111        1
Co       5.40000000       9.00000000      10.80000000      58.93319400      112        1
Mn       3.60000000      10.80000000       0.00000000      54.93804400      113        5
Mn       3.60000000      12.60000000       1.80000000      54.93804400      114        5
Fe       5.40000000      10.80000000       1.80000000      55.84500000      115        4
Ni       5.40000000      12.60000000       0.00000000      58.69340000      116        2
Cr       3.60000000      10.80000000       3.60000000      51.99610000      117        3
Cr       3.60000000      12.60000000       5.40000000      51.99610000      118        3
Ni       5.40000000      10.80000000       5.40000000      58.69340000      119        2
Mn       5.40000000      12.60000000       3.60000000      54.93804400      120        5
Co       3.60000000      10.80000000       7.20000000      58.93319400      121        1
Fe       3.60000000      12.60000000       9.00000000      55.84500000      122        4
Co       5.40000000      10.80000000       9.00000000      58.93319400      123        1
Co       5.40000000      12.60000000       7.20000000      58.93319400      124        1
Co       3.60000000      10.80000000      10.80000000      58.93319400      125        1
Co       3.60000000      12.60000000      12.60000000      58.93319400      126        1
Fe       5.40000000      10.80000000      12.60000000      55.84500000      127        4
Co       5.40000000      12.60000000      10.80000000      58.93319400      128        1
Mn       7.20000000       0.00000000       0.00000000      54.93804400      129        5
Ni       7.20000000       1.80000000       1.80000000      58.69340000      130        2
Fe       9.00000000       0.00000000       1.80000000      55.84500000      131        4
Cr       9.00000000       1.80000000       0.00000000      51.99610000      132        3
Mn       7.20000000       0.00000000       3.60000000      54.93804400      133        5
Ni       7.20000000       1.80000000       5.40000000      58.69340000      134        2
Fe       9.00000000       0.00000000       5.40000000      55.84500000      135        4
Mn       9.00000000       1.80000000       3.60000000      54.93804400      136        5
Mn       7.20000000       0.00000000       7.20000000      54.93804400      137        5
Ni       7.20000000       1.80000000       9.00000000      58.69340000      138        2
Ni       9.00000000       0.00000000       9.00000000      58.69340000      139        2
Mn       9.00000000       1.80000000       7.20000000      54.93804400      140        5
Cr       7.20000000       0.00000000      10.80000000      51.99610000      141        3
Co       7.20000000       1.80000000      12.60000000      58.93319400      142        1
Ni       9.00000000       0.00000000      12.60000000      58.69340000      143        2
Cr       9.00000000       1.80000000      10.80000000      51.99610000      144        3
Co       7.20000000       3.60000000       0.00000000      58.93319400      145        1
Cr       7.20000000       5.40000000       1.80000000      51.99610000      146        3
Mn       9.00000000       3.60000000       1.80000000      54.93804400      147        5
Cr       9.00000000       5.40000000       0.00000000      51.99610000      148        3
Cr       7.20000000       3.60000000       3.60000000      51.99610000      149        3
Ni       7.20000000       5.40000000       5.40000000      58.69340000      150        2
Ni       9.00000000       3.60000000       5.40000000      58.69340000      151        2
Cr       9.00000000       5.40000000       3.60000000      51.99610000      152        3
Mn       7.20000000       3.60000000       7.20000000      54.93804400      153        5
Fe       7.20000000       5.40000000       9.00000000      55.84500000      154        4
Fe       9.00000000       3.60000000       9.00000000      55.84500000      155        4
Mn       9.00000000       5.40000000       7.20000000      54.93804400      156        5
Co       7.20000000       3.60000000      10.80000000      58.93319400      157        1
Cr       7.20000000       5.40000000      12.60000000      51.99610000      158        3
Cr       9.00000000       3.60000000      12.60000000      51.99610000      159        3
Fe       9.00000000       5.40000000      10.80000000      55.84500000      160        4
Mn       7.20000000       7.20000000       0.00000000      54.93804400      161        5
Mn       7.20000000       9.00000000       1.80000000      54.93804400      162        5
Ni       9.00000000       7.20000000       1.80000000      58.69340000      163        2
Ni       9.00000000       9.00000000       0.00000000      58.69340000      164        2
Mn       7.20000000       7.20000000       3.60000000      54.93804400      165        5
Mn       7.20000000       9.00000000       5.40000000      54.93804400      166        5
Ni       9.00000000       7.20000000       5.40000000      58.69340000      167        2
Ni       9.00000000       9.00000000       3.60000000      58.69340000      168        2
Cr       7.20000000       7.20000000       7.20000000      51.99610000      169        3
Fe       7.20000000       9.00000000       9.00000000      55.84500000      170        4
Mn       9.00000000       7.20000000       9.00000000      54.93804400      171        5
Fe       9.00000000       9.00000000       7.20000000      55.84500000      172        4
Cr       7.20000000       7.20000000      10.80000000      51.99610000      173        3
Cr       7.20000000       9.00000000      12.60000000      51.99610000      174        3
Ni       9.00000000       7.20000000      12.60000000      58.69340000      175        2
Mn       9.00000000       9.00000000      10.80000000      54.93804400      176        5
Mn       7.20000000      10.80000000       0.00000000      54.93804400      177        5
Ni       7.20000000      12.60000000       1.80000000      58.69340000      178        2
Fe       9.00000000      10.80000000       1.80000000      55.84500000      179        4
Cr       9.00000000      12.60000000       0.00000000      51.99610000      180        3
Mn       7.20000000      10.80000000       3.60000000      54.93804400      181        5
Fe       7.20000000      12.60000000       5.40000000      55.84500000      182        4
Ni       9.00000000      10.80000000       5.40000000      58.69340000      183        2
Mn       9.00000000      12.60000000       3.60000000      54.93804400      184        5
Mn       7.20000000      10.80000000       7.20000000      54.93804400      185        5
Fe       7.20000000      12.60000000       9.00000000      55.84500000      186        4
Ni       9.00000000      10.80000000       9.00000000      58.69340000      187        2
Cr       9.00000000      12.60000000       7.20000000      51.99610000      188        3
Cr       7.20000000      10.80000000      10.80000000      51.99610000      189        3
Mn       7.20000000      12.60000000      12.60000000      54.93804400      190        5
Ni       9.00000000      10.80000000      12.60000000      58.69340000      191        2
Mn       9.00000000      12.60000000      10.80000000      54.93804400      192        5
Ni      10.80000000       0.00000000       0.00000000      58.69340000      193        2
Ni      10.80000000       1.80000000       1.80000000      58.69340000      194        2
Fe      12.60000000       0.00000000       1.80000000      55.84500000      195        4
Mn      12.60000000       1.80000000       0.00000000      54.93804400      196        5
Mn      10.80000000       0.00000000       3.60000000      54.93804400      197        5
Ni      10.80000000       1.80000000       5.40000000      58.69340000      198        2
Ni      12.60000000       0.00000000       5.40000000      58.69340000      199        2
Mn      12.60000000       1.80000000       3.60000000      54.93804400      200        5
Mn      10.80000000       0.00000000       7.20000000      54.93804400      201        5
Ni      10.80000000       1.80000000       9.00000000      58.69340000      202        2
Cr      12.60000000       0.00000000       9.00000000      51.99610000      203        3
Mn      12.60000000       1.80000000       7.20000000      54.93804400      204        5
Cr      10.80000000       0.00000000      10.80000000      51.99610000      205        3
Cr      10.80000000       1.80000000      12.60000000      51.99610000      206        3
Mn      12.60000000       0.00000000      12.60000000      54.93804400      207        5
Ni      12.60000000       1.80000000      10.80000000      58.69340000      208        2
Ni      10.80000000       3.60000000       0.00000000      58.69340000      209        2
Ni      10.80000000       5.40000000       1.80000000      58.69340000      210        2
Mn      12.60000000       3.60000000       1.80000000      54.93804400      211        5
Fe      12.60000000       5.40000000       0.00000000      55.84500000      212        4
Fe      10.80000000       3.60000000       3.60000000      55.84500000      213        4
Cr      10.80000000       5.40000000       5.40000000      51.99610000      214        3
Mn      12.60000000       3.60000000       5.40000000      54.93804400      215        5
Cr      12.60000000       5.40000000       3.60000000      51.99610000      216        3
Fe      10.80000000       3.60000000       7.20000000      55.84500000      217        4
Mn      10.80000000       5.40000000       9.00000000      54.93804400      218        5
Mn      12.60000000       3.60000000       9.00000000      54.93804400      219        5
Ni      12.60000000       5.40000000       7.20000000      58.69340000      220        2
Cr      10.80000000       3.60000000      10.80000000      51.99610000      221        3
Mn      10.80000000       5.40000000      12.60000000      54.93804400      222        5
Mn      12.60000000       3.60000000      12.60000000      54.93804400      223        5
Ni      12.60000000       5.40000000      10.80000000      58.69340000      224        2
Cr      10.80000000       7.20000000       0.00000000      51.99610000      225        3
Cr      10.80000000       9.00000000       1.80000000      51.99610000      226        3
Mn      12.60000000       7.20000000       1.80000000      54.93804400      227        5
Ni      12.60000000       9.00000000       0.00000000      58.69340000      228        2
Cr      10.80000000       7.20000000       3.60000000      51.99610000      229        3
Mn      10.80000000       9.00000000       5.40000000      54.93804400      230        5
Cr      12.60000000       7.20000000       5.40000000      51.99610000      231        3
Cr      12.60000000       9.00000000       3.60000000      51.99610000      232        3
Fe      10.80000000       7.20000000       7.20000000      55.84500000      233        4
Ni      10.80000000       9.00000000       9.00000000      58.69340000      234        2
Cr      12.60000000       7.20000000       9.00000000      51.99610000      235        3
Co      12.60000000       9.00000000       7.20000000      58.93319400      236        1
Ni      10.80000000       7.20000000      10.80000000      58.69340000      237        2
Mn      10.80000000       9.00000000      12.60000000      54.93804400      238        5
Fe      12.60000000       7.20000000      12.60000000      55.84500000      239        4
Cr      12.60000000       9.00000000      10.80000000      51.99610000      240        3
Cr      10.80000000      10.80000000       0.00000000      51.99610000      241        3
Ni      10.80000000      12.60000000       1.80000000      58.69340000      242        2
Ni      12.60000000      10.80000000       1.80000000      58.69340000      243        2
Mn      12.60000000      12.60000000       0.00000000      54.93804400      244        5
Mn      10.80000000      10.80000000       3.60000000      54.93804400      245        5
Ni      10.80000000      12.60000000       5.40000000      58.69340000      246        2
Fe      12.60000000      10.80000000       5.40000000      55.84500000      247        4
Mn      12.60000000      12.60000000       3.60000000      54.93804400      248        5
Mn      10.80000000      10.80000000       7.20000000      54.93804400      249        5
Cr      10.80000000      12.60000000       9.00000000      51.99610000      250        3
Fe      12.60000000      10.80000000       9.00000000      55.84500000      251        4
Cr      12.60000000      12.60000000       7.20000000      51.99610000      252        3
Fe      10.80000000      10.80000000      10.80000000      55.84500000      253        4
Cr      10.80000000      12.60000000      12.60000000      51.99610000      254        3
Ni      12.60000000      10.80000000      12.60000000      58.69340000      255        2
Cr      12.60000000      12.60000000      10.80000000      51.99610000      256        3
