256
Lattice="14.4 0.0 0.0 0.0 14.4 0.0 0.0 0.0 14.4" Properties=species:S:1:pos:R:3:masses:R:1:id:I:1:type:I:1 comment="(written by ASE)" energy=-1023.32364823402 pbc="T T T"
Mn       0.00000000       0.00000000       0.00000000      54.93804400        1        5
Mn       0.00000000       1.80000000       1.80000000      54.93804400        2        5
Ni       1.80000000       0.00000000       1.80000000      58.69340000        3        2
Mn       1.80000000       1.80000000       0.00000000      54.93804400        4        5
Fe       0.00000000       0.00000000       3.60000000      55.84500000        5        4
Mn       0.00000000       1.80000000       5.40000000      54.93804400        6        5
Co       1.80000000       0.00000000       5.40000000      58.93319400        7        1
Co       1.80000000       1.80000000       3.60000000      58.93319400        8        1
Ni       0.00000000       0.00000000       7.20000000      58.69340000        9        2
Mn       0.00000000       1.80000000       9.00000000      54.93804400       10        5
Co       1.80000000       0.00000000       9.00000000      58.93319400       11        1
Fe       1.80000000       1.80000000       7.20000000      55.84500000       12        4
Mn       0.00000000       0.00000000      10.80000000      54.93804400       13        5
Mn       0.00000000       1.80000000      12.60000000      54.93804400       14        5
Mn       1.80000000       0.00000000      12.60000000      54.93804400       15        5
Mn       1.80000000       1.80000000      10.80000000      54.93804400       16        5
Co       0.00000000       3.60000000       0.00000000      58.93319400       17        1
Fe       0.00000000       5.40000000       1.80000000      55.84500000       18        4
Cr       1.80000000       3.60000000       1.80000000      51.99610000       19        3
Mn       1.80000000       5.40000000       0.00000000      54.93804400       20        5
Ni       0.00000000       3.60000000       3.60000000      58.69340000       21        2
Co       0.00000000       5.40000000       5.40000000      58.93319400       22        1
Fe       1.80000000       3.60000000       5.40000000      55.84500000       23        4
Co       1.80000000       5.40000000       3.60000000      58.93319400       24        1
Ni       0.00000000       3.60000000       7.20000000      58.69340000       25        2
Co       0.00000000       5.40000000       9.00000000      58.93319400       26        1
Ni       1.80000000       3.60000000       9.00000000      58.69340000       27        2
Fe       1.80000000       5.40000000       7.20000000      55.84500000       28        4
Mn       0.00000000       3.60000000      10.80000000      54.93804400       29        5
Ni       0.00000000       5.40000000      12.60000000      58.69340000       30        2
Mn       1.80000000       3.60000000      12.60000000      54.93804400       31        5
Fe       1.80000000       5.40000000      10.80000000      55.84500000       32        4
Mn       0.00000000       7.20000000       0.00000000      54.93804400       33        5
Fe       0.00000000       9.00000000       1.80000000      55.84500000       34        4
Ni       1.80000000       7.20000000       1.80000000      58.69340000       35        2
Mn       1.80000000       9.00000000       0.00000000      54.93804400       36        5
Cr       0.00000000       7.20000000       3.60000000      51.99610000       37        3
Cr       0.00000000       9.00000000       5.40000000      51.99610000       38        3
Cr       1.80000000       7.20000000       5.40000000      51.99610000       39        3
Co       1.80000000       9.00000000       3.60000000      58.93319400       40        1
Cr       0.00000000       7.20000000       7.20000000      51.99610000       41        3
Co       0.00000000       9.00000000       9.00000000      58.93319400       42        1
Ni       1.80000000       7.20000000       9.00000000      58.69340000       43        2
Cr       1.80000000       9.00000000       7.20000000      51.99610000       44        3
Co       0.00000000       7.20000000      10.80000000      58.93319400       45        1
Ni       0.00000000       9.00000000      12.60000000      58.69340000       46        2
Fe       1.80000000       7.20000000      12.60000000      55.84500000       47        4
Fe       1.80000000       9.00000000      10.80000000      55.84500000       48        4
Mn       0.00000000      10.80000000       0.00000000      54.93804400       49        5
Mn       0.00000000      12.60000000       1.80000000      54.93804400       50        5
Ni       1.80000000      10.80000000       1.80000000      58.69340000       51        2
Mn       1.80000000      12.60000000       0.00000000      54.93804400       52        5
Fe       0.00000000      10.80000000       3.60000000      55.84500000       53        4
Ni       0.00000000      12.60000000       5.40000000      58.69340000       54        2
Co       1.80000000      10.80000000       5.40000000      58.93319400       55        1
Ni       1.80000000      12.60000000       3.60000000      58.69340000       56        2
Fe       0.00000000      10.80000000       7.20000000      55.84500000       57        4
Mn       0.00000000      12.60000000       9.00000000      54.93804400       58        5
Ni       1.80000000      10.80000000       9.00000000      58.69340000       59        2
Mn       1.80000000      12.60000000       7.20000000      54.93804400       60        5
Mn       0.00000000      10.80000000      10.80000000      54.93804400       61        5
Mn       0.00000000      12.60000000      12.60000000      54.93804400       62        5
Ni       1.80000000      10.80000000      12.60000000      58.69340000       63        2
Fe       1.80000000      12.60000000      10.80000000      55.84500000       64        4
Mn       3.60000000       0.00000000       0.00000000      54.93804400       65        5
Fe       3.60000000       1.80000000       1.80000000      55.84500000       66        4
Cr       5.40000000       0.00000000       1.80000000      51.99610000       67        3
Cr       5.40000000       1.80000000       0.00000000      51.99610000       68        3
Cr       3.60000000       0.00000000       3.60000000      51.99610000       69        3
Cr       3.60000000       1.80000000       5.40000000      51.99610000       70        3
Fe       5.40000000       0.00000000       5.40000000      55.84500000       71        4
Co       5.40000000       1.80000000       3.60000000      58.93319400       72        1
Ni       3.60000000       0.00000000       7.20000000      58.69340000       73        2
Fe       3.60000000       1.80000000       9.00000000      55.84500000       74        4
Ni       5.40000000       0.00000000       9.00000000      58.69340000       75        2
Mn       5.40000000       1.80000000       7.20000000      54.93804400       76        5
Mn       3.60000000       0.00000000      10.80000000      54.93804400       77        5
Ni       3.60000000       1.80000000      12.60000000      58.69340000       78        2
Cr       5.40000000       0.00000000      12.60000000      51.99610000       79        3
Mn       5.40000000       1.80000000      10.80000000      54.93804400       80        5
Co       3.60000000       3.60000000       0.00000000      58.93319400       81        1
Fe       3.60000000       5.40000000       1.80000000      55.84500000       82        4
Fe       5.40000000       3.60000000       1.80000000      55.84500000       83        4
Ni       5.40000000       5.40000000       0.00000000      58.69340000       84        2
Cr       3.60000000       3.60000000       3.60000000      51.99610000       85        3
Co       3.60000000       5.40000000       5.40000000      58.93319400       86        1
Cr       5.40000000       3.60000000       5.40000000      51.99610000       87        3
Co       5.40000000       5.40000000       3.60000000      58.93319400       88        1
Co       3.60000000       3.60000000       7.20000000      58.93319400       89        1
Mn       3.60000000       5.40000000       9.00000000      54.93804400       90        5
Ni       5.40000000       3.60000000       9.00000000      58.69340000       91        2
Cr       5.40000000       5.40000000       7.20000000      51.99610000       92        3
Mn       3.60000000       3.60000000      10.80000000      54.93804400       93        5
Ni       3.60000000       5.40000000      12.60000000      58.69340000       94        2
Fe       5.40000000       3.60000000      12.60000000      55.84500000       95        4
Fe       5.40000000       5.40000000      10.80000000      55.84500000       96        4
Co       3.60000000       7.20000000       0.00000000      58.93319400       97        1
Ni       3.60000000       9.00000000       1.80000000      58.69340000       98        2
Fe       5.40000000       7.20000000       1.80000000      55.84500000       99        4
Mn       5.40000000       9.00000000       0.00000000      54.93804400      100        5
Fe       3.60000000       7.20000000       3.60000000      55.84500000      101        4
Cr       3.60000000       9.00000000       5.40000000      51.99610000      102        3
Cr       5.40000000       7.20000000       5.40000000      51.99610000      103        3
Co       5.40000000       9.00000000       3.60000000      58.93319400      104        1
Co       3.60000000       7.20000000       7.20000000      58.93319400      105        1
Cr       3.60000000       9.00000000       9.00000000      51.99610000      106        3
Cr       5.40000000       7.20000000       9.00000000      51.99610000      107        3
Cr       5.40000000       9.00000000       7.20000000      51.99610000      108        3
Co       3.60000000       7.20000000      10.80000000      58.93319400      109        1
Fe       3.60000000       9.00000000      12.60000000      55.84500000      110        4
Cr       5.40000000       7.20000000      12.60000000      51.99610000      111        3
Cr       5.40000000       9.00000000      10.80000000      51.99610000      112        3
Mn       3.60000000      10.80000000       0.00000000      54.93804400      113        5
Co       3.60000000      12.60000000       1.80000000      58.93319400      114        1
Fe       5.40000000      10.80000000       1.80000000      55.84500000      115        4
Fe       5.40000000      12.60000000       0.00000000      55.84500000      116        4
Fe       3.60000000      10.80000000       3.60000000      55.84500000      117        4
Ni       3.60000000      12.60000000       5.40000000      58.69340000      118        2
Fe       5.40000000      10.80000000       5.40000000      55.84500000      119        4
Co       5.40000000      12.60000000       3.60000000      58.93319400      120        1
Co       3.60000000      10.80000000       7.20000000      58.93319400      121        1
Fe       3.60000000      12.60000000       9.00000000      55.84500000      122        4
Cr       5.40000000      10.80000000       9.00000000      51.99610000      123        3
Co       5.40000000      12.60000000       7.20000000      58.93319400      124        1
Co       3.60000000      10.80000000      10.80000000      58.93319400      125        1
Mn       3.60000000      12.60000000      12.60000000      54.93804400      126        5
Mn       5.40000000      10.80000000      12.60000000      54.93804400      127        5
Fe       5.40000000      12.60000000      10.80000000      55.84500000      128        4
Co       7.20000000       0.00000000       0.00000000      58.93319400      129        1
Ni       7.20000000       1.80000000       1.80000000      58.69340000      130        2
Co       9.00000000       0.00000000       1.80000000      58.93319400      131        1
Fe       9.00000000       1.80000000       0.00000000      55.84500000      132        4
Fe       7.20000000       0.00000000       3.60000000      55.84500000      133        4
Ni       7.20000000       1.80000000       5.40000000      58.69340000      134        2
Mn       9.00000000       0.00000000       5.40000000      54.93804400      135        5
Fe       9.00000000       1.80000000       3.60000000      55.84500000      136        4
Mn       7.20000000       0.00000000       7.20000000      54.93804400      137        5
Fe       7.20000000       1.80000000       9.00000000      55.84500000      138        4
Ni       9.00000000       0.00000000       9.00000000      58.69340000      139        2
Co       9.00000000       1.80000000       7.20000000      58.93319400      140        1
Co       7.20000000       0.00000000      10.80000000      58.93319400      141        1
Cr       7.20000000       1.80000000      12.60000000      51.99610000      142        3
Ni       9.00000000       0.00000000      12.60000000      58.69340000      143        2
Fe       9.00000000       1.80000000      10.80000000      55.84500000      144        4
Co       7.20000000       3.60000000       0.00000000      58.93319400      145        1
Ni       7.20000000       5.40000000       1.80000000      58.69340000      146        2
Ni       9.00000000       3.60000000       1.80000000      58.69340000      147        2
Fe       9.00000000       5.40000000       0.00000000      55.84500000      148        4
Fe       7.20000000       3.60000000       3.60000000      55.84500000      149        4
Cr       7.20000000       5.40000000       5.40000000      51.99610000      150        3
Co       9.00000000       3.60000000       5.40000000      58.93319400      151        1
Co       9.00000000       5.40000000       3.60000000      58.93319400      152        1
Mn       7.20000000       3.60000000       7.20000000      54.93804400      153        5
Co       7.20000000       5.40000000       9.00000000      58.93319400      154        1
Ni       9.00000000       3.60000000       9.00000000      58.69340000      155        2
Cr       9.00000000       5.40000000       7.20000000      51.99610000      156        3
Co       7.20000000       3.60000000      10.80000000      58.93319400      157        1
Co       7.20000000       5.40000000      12.60000000      58.93319400      158        1
Cr       9.00000000       3.60000000      12.60000000      51.99610000      159        3
Cr       9.00000000       5.40000000      10.80000000      51.99610000      160        3
Mn       7.20000000       7.20000000       0.00000000      54.93804400      161        5
Ni       7.20000000       9.00000000       1.80000000      58.69340000      162        2
Fe       9.00000000       7.20000000       1.80000000      55.84500000      163        4
Fe       9.00000000       9.00000000       0.00000000      55.84500000      164        4
Fe       7.20000000       7.20000000       3.60000000      55.84500000      165        4
Ni       7.20000000       9.00000000       5.40000000      58.69340000      166        2
Cr       9.00000000       7.20000000       5.40000000      51.99610000      167        3
Co       9.00000000       9.00000000       3.60000000      58.93319400      168        1
Co       7.20000000       7.20000000       7.20000000      58.93319400      169        1
Cr       7.20000000       9.00000000       9.00000000      51.99610000      170        3
Cr       9.00000000       7.20000000       9.00000000      51.99610000      171        3
Fe       9.00000000       9.00000000       7.20000000      55.84500000      172        4
Cr       7.20000000       7.20000000      10.80000000      51.99610000      173        3
Ni       7.20000000       9.00000000      12.60000000      58.69340000      174        2
Cr       9.00000000       7.20000000      12.60000000      51.99610000      175        3
Cr       9.00000000       9.00000000      10.80000000      51.99610000      176        3
Co       7.20000000      10.80000000       0.00000000      58.93319400      177        1
Cr       7.20000000      12.60000000       1.80000000      51.99610000      178        3
Ni       9.00000000      10.80000000       1.80000000      58.69340000      179        2
Fe       9.00000000      12.60000000       0.00000000      55.84500000      180        4
Fe       7.20000000      10.80000000       3.60000000      55.84500000      181        4
Mn       7.20000000      12.60000000       5.40000000      54.93804400      182        5
Ni       9.00000000      10.80000000       5.40000000      58.69340000      183        2
Ni       9.00000000      12.60000000       3.60000000      58.69340000      184        2
Mn       7.20000000      10.80000000       7.20000000      54.93804400      185        5
Fe       7.20000000      12.60000000       9.00000000      55.84500000      186        4
Ni       9.00000000      10.80000000       9.00000000      58.69340000      187        2
Mn       9.00000000      12.60000000       7.20000000      54.93804400      188        5
Co       7.20000000      10.80000000      10.80000000      58.93319400      189        1
Ni       7.20000000      12.60000000      12.60000000      58.69340000      190        2
Mn       9.00000000      10.80000000      12.60000000      54.93804400      191        5
Mn       9.00000000      12.60000000      10.80000000      54.93804400      192        5
Ni      10.80000000       0.00000000       0.00000000      58.69340000      193        2
Mn      10.80000000       1.80000000       1.80000000      54.93804400      194        5
Mn      12.60000000       0.00000000       1.80000000      54.93804400      195        5
Fe      12.60000000       1.80000000       0.00000000      55.84500000      196        4
Mn      10.80000000       0.00000000       3.60000000      54.93804400      197        5
Ni      10.80000000       1.80000000       5.40000000      58.69340000      198        2
Mn      12.60000000       0.00000000       5.40000000      54.93804400      199        5
Mn      12.60000000       1.80000000       3.60000000      54.93804400      200        5
Mn      10.80000000       0.00000000       7.20000000      54.93804400      201        5
Mn      10.80000000       1.80000000       9.00000000      54.93804400      202        5
Fe      12.60000000       0.00000000       9.00000000      55.84500000      203        4
Mn      12.60000000       1.80000000       7.20000000      54.93804400      204        5
Mn      10.80000000       0.00000000      10.80000000      54.93804400      205        5
Co      10.80000000       1.80000000      12.60000000      58.93319400      206        1
Mn      12.60000000       0.00000000      12.60000000      54.93804400      207        5
Ni      12.60000000       1.80000000      10.80000000      58.69340000      208        2
Cr      10.80000000       3.60000000       0.00000000      51.99610000      209        3
Co      10.80000000       5.40000000       1.80000000      58.93319400      210        1
Ni      12.60000000       3.60000000       1.80000000      58.69340000      211        2
Fe      12.60000000       5.40000000       0.00000000      55.84500000      212        4
Fe      10.80000000       3.60000000       3.60000000      55.84500000      213        4
Cr      10.80000000       5.40000000       5.40000000      51.99610000      214        3
Co      12.60000000       3.60000000       5.40000000      58.93319400      215        1
Cr      12.60000000       5.40000000       3.60000000      51.99610000      216        3
Fe      10.80000000       3.60000000       7.20000000      55.84500000      217        4
Cr      10.80000000       5.40000000       9.00000000      51.99610000      218        3
Mn      12.60000000       3.60000000       9.00000000      54.93804400      219        5
Cr      12.60000000       5.40000000       7.20000000      51.99610000      220        3
Co      10.80000000       3.60000000      10.80000000      58.93319400      221        1
Co      10.80000000       5.40000000      12.60000000      58.93319400      222        1
Ni      12.60000000       3.60000000      12.60000000      58.69340000      223        2
Fe      12.60000000       5.40000000      10.80000000      55.84500000      224        4
Cr      10.80000000       7.20000000       0.00000000      51.99610000      225        3
Cr      10.80000000       9.00000000       1.80000000      51.99610000      226        3
Cr      12.60000000       7.20000000       1.80000000      51.99610000      227        3
Mn      12.60000000       9.00000000       0.00000000      54.93804400      228        5
Cr      10.80000000       7.20000000       3.60000000      51.99610000      229        3
Fe      10.80000000       9.00000000       5.40000000      55.84500000      230        4
Co      12.60000000       7.20000000       5.40000000      58.93319400      231        1
Co      12.60000000       9.00000000       3.60000000      58.93319400      232        1
Cr      10.80000000       7.20000000       7.20000000      51.99610000      233        3
Co      10.80000000       9.00000000       9.00000000      58.93319400      234        1
Cr      12.60000000       7.20000000       9.00000000      51.99610000      235        3
Cr      12.60000000       9.00000000       7.20000000      51.99610000      236        3
Cr      10.80000000       7.20000000      10.80000000      51.99610000      237        3
Co      10.80000000       9.00000000      12.60000000      58.93319400      238        1
Ni      12.60000000       7.20000000      12.60000000      58.69340000      239        2
Fe      12.60000000       9.00000000      10.80000000      55.84500000      240        4
Ni      10.80000000      10.80000000       0.00000000      58.69340000      241        2
Mn      10.80000000      12.60000000       1.80000000      54.93804400      242        5
Ni      12.60000000      10.80000000       1.80000000      58.69340000      243        2
Mn      12.60000000      12.60000000       0.00000000      54.93804400      244        5
Fe      10.80000000      10.80000000       3.60000000      55.84500000      245        4
Mn      10.80000000      12.60000000       5.40000000      54.93804400      246        5
Co      12.60000000      10.80000000       5.40000000      58.93319400      247        1
Mn      12.60000000      12.60000000       3.60000000      54.93804400      248        5
Fe      10.80000000      10.80000000       7.20000000      55.84500000      249        4
Mn      10.80000000      12.60000000       9.00000000      54.93804400      250        5
Ni      12.60000000      10.80000000       9.00000000      58.69340000      251        2
Mn      12.60000000      12.60000000       7.20000000      54.93804400      252        5
Fe      10.80000000      10.80000000      10.80000000      55.84500000      253        4
Mn      10.80000000      12.60000000      12.60000000      54.93804400      254        5
Mn      12.60000000      10.80000000      12.60000000      54.93804400      255        5
Mn      12.60000000      12.60000000      10.80000000      54.93804400      256        5
