256
Lattice="14.4 0.0 0.0 0.0 14.4 0.0 0.0 0.0 14.4" Properties=species:S:1:pos:R:3:masses:R:1:id:I:1:type:I:1 comment="(written by ASE)" energy=-1025.93565347842 pbc="T T T"
Mn       0.00000000       0.00000000       0.00000000      54.93804400        1        5
Mn       0.00000000       1.80000000       1.80000000      54.93804400        2        5
Co       1.80000000       0.00000000       1.80000000      58.93319400        3        1
Cr       1.80000000       1.80000000       0.00000000      51.99610000        4        3
Ni       0.00000000       0.00000000       3.60000000      58.69340000        5        2
Co       0.00000000       1.80000000       5.40000000      58.93319400        6        1
Fe       1.80000000       0.00000000       5.40000000      55.84500000        7        4
Fe       1.80000000       1.80000000       3.60000000      55.84500000        8        4
Co       0.00000000       0.00000000       7.20000000      58.93319400        9        1
Fe       0.00000000       1.80000000       9.00000000      55.84500000       10        4
Fe       1.80000000       0.00000000       9.00000000      55.84500000       11        4
Mn       1.80000000       1.80000000       7.20000000      54.93804400       12        5
Ni       0.00000000       0.00000000      10.80000000      58.69340000       13        2
Mn       0.00000000       1.80000000      12.60000000      54.93804400       14        5
Mn       1.80000000       0.00000000      12.60000000      54.93804400       15        5
Co       1.80000000       1.80000000      10.80000000      58.93319400       16        1
Cr       0.00000000       3.60000000       0.00000000      51.99610000       17        3
Co       0.00000000       5.40000000       1.80000000      58.93319400       18        1
Cr       1.80000000       3.60000000       1.80000000      51.99610000       19        3
Fe       1.80000000       5.40000000       0.00000000      55.84500000       20        4
Fe       0.00000000       3.60000000       3.60000000      55.84500000       21        4
Co       0.00000000       5.40000000       5.40000000      58.93319400       22        1
Co       1.80000000       3.60000000       5.40000000      58.93319400       23        1
Fe       1.80000000       5.40000000       3.60000000      55.84500000       24        4
Fe       0.00000000       3.60000000       7.20000000      55.84500000       25        4
Co       0.00000000       5.40000000       9.00000000      58.93319400       26        1
Fe       1.80000000       3.60000000       9.00000000      55.84500000       27        4
Fe       1.80000000       5.40000000       7.20000000      55.84500000       28        4
Co       0.00000000       3.60000000      10.80000000      58.93319400       29        1
Mn       0.00000000       5.40000000      12.60000000      54.93804400       30        5
Fe       1.80000000       3.60000000      12.60000000      55.84500000       31        4
Ni       1.80000000       5.40000000      10.80000000      58.69340000       32        2
Co       0.00000000       7.20000000       0.00000000      58.93319400       33        1
Ni       0.00000000       9.00000000       1.80000000      58.69340000       34        2
Fe       1.80000000       7.20000000       1.80000000      55.84500000       35        4
Ni       1.80000000       9.00000000       0.00000000      58.69340000       36        2
Fe       0.00000000       7.20000000       3.60000000      55.84500000       37        4
Fe       0.00000000       9.00000000       5.40000000      55.84500000       38        4
Co       1.80000000       7.20000000       5.40000000      58.93319400       39        1
Fe       1.80000000       9.00000000       3.60000000      55.84500000       40        4
Fe       0.00000000       7.20000000       7.20000000      55.84500000       41        4
Co       0.00000000       9.00000000       9.00000000      58.93319400       42        1
Co       1.80000000       7.20000000       9.00000000      58.93319400       43        1
Co       1.80000000       9.00000000       7.20000000      58.93319400       44        1
Co       0.00000000       7.20000000      10.80000000      58.93319400       45        1
Co       0.00000000       9.00000000      12.60000000      58.93319400       46        1
Ni       1.80000000       7.20000000      12.60000000      58.69340000       47        2
Fe       1.80000000       9.00000000      10.80000000      55.84500000       48        4
Ni       0.00000000      10.80000000       0.00000000      58.69340000       49        2
Ni       0.00000000      12.60000000       1.80000000      58.69340000       50        2
Ni       1.80000000      10.80000000       1.80000000      58.69340000       51        2
Ni       1.80000000      12.60000000       0.00000000      58.69340000       52        2
Ni       0.00000000      10.80000000       3.60000000      58.69340000       53        2
Ni       0.00000000      12.60000000       5.40000000      58.69340000       54        2
Co       1.80000000      10.80000000       5.40000000      58.93319400       55        1
Fe       1.80000000      12.60000000       3.60000000      55.84500000       56        4
Fe       0.00000000      10.80000000       7.20000000      55.84500000       57        4
Ni       0.00000000      12.60000000       9.00000000      58.69340000       58        2
Fe       1.80000000      10.80000000       9.00000000      55.84500000       59        4
Co       1.80000000      12.60000000       7.20000000      58.93319400       60        1
Co       0.00000000      10.80000000      10.80000000      58.93319400       61        1
Ni       0.00000000      12.60000000      12.60000000      58.69340000       62        2
Ni       1.80000000      10.80000000      12.60000000      58.69340000       63        2
Co       1.80000000      12.60000000      10.80000000      58.93319400       64        1
Cr       3.60000000       0.00000000       0.00000000      51.99610000       65        3
Mn       3.60000000       1.80000000       1.80000000      54.93804400       66        5
Cr       5.40000000       0.00000000       1.80000000      51.99610000       67        3
Mn       5.40000000       1.80000000       0.00000000      54.93804400       68        5
Mn       3.60000000       0.00000000       3.60000000      54.93804400       69        5
Cr       3.60000000       1.80000000       5.40000000      51.99610000       70        3
Mn       5.40000000       0.00000000       5.40000000      54.93804400       71        5
Cr       5.40000000       1.80000000       3.60000000      51.99610000       72        3
Cr       3.60000000       0.00000000       7.20000000      51.99610000       73        3
Mn       3.60000000       1.80000000       9.00000000      54.93804400       74        5
Mn       5.40000000       0.00000000       9.00000000      54.93804400       75        5
Cr       5.40000000       1.80000000       7.20000000      51.99610000       76        3
Co       3.60000000       0.00000000      10.80000000      58.93319400       77        1
Mn       3.60000000       1.80000000      12.60000000      54.93804400       78        5
Cr       5.40000000       0.00000000      12.60000000      51.99610000       79        3
Mn       5.40000000       1.80000000      10.80000000      54.93804400       80        5
Mn       3.60000000       3.60000000       0.00000000      54.93804400       81        5
Cr       3.60000000       5.40000000       1.80000000      51.99610000       82        3
Cr       5.40000000       3.60000000       1.80000000      51.99610000       83        3
Mn       5.40000000       5.40000000       0.00000000      54.93804400       84        5
Mn       3.60000000       3.60000000       3.60000000      54.93804400       85        5
Cr       3.60000000       5.40000000       5.40000000      51.99610000       86        3
Mn       5.40000000       3.60000000       5.40000000      54.93804400       87        5
Cr       5.40000000       5.40000000       3.60000000      51.99610000       88        3
Cr       3.60000000       3.60000000       7.20000000      51.99610000       89        3
Mn       3.60000000       5.40000000       9.00000000      54.93804400       90        5
Cr       5.40000000       3.60000000       9.00000000      51.99610000       91        3
Cr       5.40000000       5.40000000       7.20000000      51.99610000       92        3
Ni       3.60000000       3.60000000      10.80000000      58.69340000       93        2
Ni       3.60000000       5.40000000      12.60000000      58.69340000       94        2
Cr       5.40000000       3.60000000      12.60000000      51.99610000       95        3
Mn       5.40000000       5.40000000      10.80000000      54.93804400       96        5
Ni       3.60000000       7.20000000       0.00000000      58.69340000       97        2
Cr       3.60000000       9.00000000       1.80000000      51.99610000       98        3
Cr       5.40000000       7.20000000       1.80000000      51.99610000       99        3
Mn       5.40000000       9.00000000       0.00000000      54.93804400      100        5
Mn       3.60000000       7.20000000       3.60000000      54.93804400      101        5
Fe       3.60000000       9.00000000       5.40000000      55.84500000      102        4
Mn       5.40000000       7.20000000       5.40000000      54.93804400      103        5
Mn       5.40000000       9.00000000       3.60000000      54.93804400      104        5
Mn       3.60000000       7.20000000       7.20000000      54.93804400      105        5
Co       3.60000000       9.00000000       9.00000000      58.93319400      106        1
Fe       5.40000000       7.20000000       9.00000000      55.84500000      107        4
Fe       5.40000000       9.00000000       7.20000000      55.84500000      108        4
Ni       3.60000000       7.20000000      10.80000000      58.69340000      109        2
Ni       3.60000000       9.00000000      12.60000000      58.69340000      110        2
Ni       5.40000000       7.20000000      12.60000000      58.69340000      111        2
Fe       5.40000000       9.00000000      10.80000000      55.84500000      112        4
Mn       3.60000000      10.80000000       0.00000000      54.93804400      113        5
Cr       3.60000000      12.60000000       1.80000000      51.99610000      114        3
Cr       5.40000000      10.80000000       1.80000000      51.99610000      115        3
Mn       5.40000000      12.60000000       0.00000000      54.93804400      116        5
Co       3.60000000      10.80000000       3.60000000      58.93319400      117        1
Cr       3.60000000      12.60000000       5.40000000      51.99610000      118        3
Fe       5.40000000      10.80000000       5.40000000      55.84500000      119        4
Mn       5.40000000      12.60000000       3.60000000      54.93804400      120        5
Co       3.60000000      10.80000000       7.20000000      58.93319400      121        1
Fe       3.60000000      12.60000000       9.00000000      55.84500000      122        4
Fe       5.40000000      10.80000000       9.00000000      55.84500000      123        4
Mn       5.40000000      12.60000000       7.20000000      54.93804400      124        5
Co       3.60000000      10.80000000      10.80000000      58.93319400      125        1
Mn       3.60000000      12.60000000      12.60000000      54.93804400      126        5
Cr       5.40000000      10.80000000      12.60000000      51.99610000      127        3
Mn       5.40000000      12.60000000      10.80000000      54.93804400      128        5
Cr       7.20000000       0.00000000       0.00000000      51.99610000      129        3
Mn       7.20000000       1.80000000       1.80000000      54.93804400      130        5
Ni       9.00000000       0.00000000       1.80000000      58.69340000      131        2
Cr       9.00000000       1.80000000       0.00000000      51.99610000      132        3
Cr       7.20000000       0.00000000       3.60000000      51.99610000      133        3
Mn       7.20000000       1.80000000       5.40000000      54.93804400      134        5
Fe       9.00000000       0.00000000       5.40000000      55.84500000      135        4
Fe       9.00000000       1.80000000       3.60000000      55.84500000      136        4
Fe       7.20000000       0.00000000       7.20000000      55.84500000      137        4
Mn       7.20000000       1.80000000       9.00000000      54.93804400      138        5
Co       9.00000000       0.00000000       9.00000000      58.93319400      139        1
Co       9.00000000       1.80000000       7.20000000      58.93319400      140        1
Fe       7.20000000       0.00000000      10.80000000      55.84500000      141        4
Mn       7.20000000       1.80000000      12.60000000      54.93804400      142        5
Cr       9.00000000       0.00000000      12.60000000      51.99610000      143        3
Cr       9.00000000       1.80000000      10.80000000      51.99610000      144        3
Cr       7.20000000       3.60000000       0.00000000      51.99610000      145        3
Mn       7.20000000       5.40000000       1.80000000      54.93804400      146        5
Cr       9.00000000       3.60000000       1.80000000      51.99610000      147        3
Cr       9.00000000       5.40000000       0.00000000      51.99610000      148        3
Cr       7.20000000       3.60000000       3.60000000      51.99610000      149        3
Mn       7.20000000       5.40000000       5.40000000      54.93804400      150        5
Co       9.00000000       3.60000000       5.40000000      58.93319400      151        1
Mn       9.00000000       5.40000000       3.60000000      54.93804400      152        5
Mn       7.20000000       3.60000000       7.20000000      54.93804400      153        5
Mn       7.20000000       5.40000000       9.00000000      54.93804400      154        5
Mn       9.00000000       3.60000000       9.00000000      54.93804400      155        5
Co       9.00000000       5.40000000       7.20000000      58.93319400      156        1
Cr       7.20000000       3.60000000      10.80000000      51.99610000      157        3
Cr       7.20000000       5.40000000      12.60000000      51.99610000      158        3
Mn       9.00000000       3.60000000      12.60000000      54.93804400      159        5
Mn       9.00000000       5.40000000      10.80000000      54.93804400      160        5
Mn       7.20000000       7.20000000       0.00000000      54.93804400      161        5
Mn       7.20000000       9.00000000       1.80000000      54.93804400      162        5
Cr       9.00000000       7.20000000       1.80000000      51.99610000      163        3
Cr       9.00000000       9.00000000       0.00000000      51.99610000      164        3
Cr       7.20000000       7.20000000       3.60000000      51.99610000      165        3
Co       7.20000000       9.00000000       5.40000000      58.93319400      166        1
Fe       9.00000000       7.20000000       5.40000000      55.84500000      167        4
Mn       9.00000000       9.00000000       3.60000000      54.93804400      168        5
Co       7.20000000       7.20000000       7.20000000      58.93319400      169        1
Co       7.20000000       9.00000000       9.00000000      58.93319400      170        1
Fe       9.00000000       7.20000000       9.00000000      55.84500000      171        4
Co       9.00000000       9.00000000       7.20000000      58.93319400      172        1
Co       7.20000000       7.20000000      10.80000000      58.93319400      173        1
Mn       7.20000000       9.00000000      12.60000000      54.93804400      174        5
Mn       9.00000000       7.20000000      12.60000000      54.93804400      175        5
Fe       9.00000000       9.00000000      10.80000000      55.84500000      176        4
Cr       7.20000000      10.80000000       0.00000000      51.99610000      177        3
Cr       7.20000000      12.60000000       1.80000000      51.99610000      178        3
Cr       9.00000000      10.80000000       1.80000000      51.99610000      179        3
Mn       9.00000000      12.60000000       0.00000000      54.93804400      180        5
Mn       7.20000000      10.80000000       3.60000000      54.93804400      181        5
Mn       7.20000000      12.60000000       5.40000000      54.93804400      182        5
Fe       9.00000000      10.80000000       5.40000000      55.84500000      183        4
Co       9.00000000      12.60000000       3.60000000      58.93319400      184        1
Co       7.20000000      10.80000000       7.20000000      58.93319400      185        1
Co       7.20000000      12.60000000       9.00000000      58.93319400      186        1
Fe       9.00000000      10.80000000       9.00000000      55.84500000      187        4
Ni       9.00000000      12.60000000       7.20000000      58.69340000      188        2
Co       7.20000000      10.80000000      10.80000000      58.93319400      189        1
Cr       7.20000000      12.60000000      12.60000000      51.99610000      190        3
Mn       9.00000000      10.80000000      12.60000000      54.93804400      191        5
Ni       9.00000000      12.60000000      10.80000000      58.69340000      192        2
Ni      10.80000000       0.00000000       0.00000000      58.69340000      193        2
Ni      10.80000000       1.80000000       1.80000000      58.69340000      194        2
Ni      12.60000000       0.00000000       1.80000000      58.69340000      195        2
Ni      12.60000000       1.80000000       0.00000000      58.69340000      196        2
Ni      10.80000000       0.00000000       3.60000000      58.69340000      197        2
Fe      10.80000000       1.80000000       5.40000000      55.84500000      198        4
Fe      12.60000000       0.00000000       5.40000000      55.84500000      199        4
Ni      12.60000000       1.80000000       3.60000000      58.69340000      200        2
Ni      10.80000000       0.00000000       7.20000000      58.69340000      201        2
Fe      10.80000000       1.80000000       9.00000000      55.84500000      202        4
Ni      12.60000000       0.00000000       9.00000000      58.69340000      203        2
Co      12.60000000       1.80000000       7.20000000      58.93319400      204        1
Mn      10.80000000       0.00000000      10.80000000      54.93804400      205        5
Mn      10.80000000       1.80000000      12.60000000      54.93804400      206        5
Ni      12.60000000       0.00000000      12.60000000      58.69340000      207        2
Mn      12.60000000       1.80000000      10.80000000      54.93804400      208        5
Mn      10.80000000       3.60000000       0.00000000      54.93804400      209        5
Mn      10.80000000       5.40000000       1.80000000      54.93804400      210        5
Fe      12.60000000       3.60000000       1.80000000      55.84500000      211        4
Mn      12.60000000       5.40000000       0.00000000      54.93804400      212        5
Fe      10.80000000       3.60000000       3.60000000      55.84500000      213        4
Co      10.80000000       5.40000000       5.40000000      58.93319400      214        1
Co      12.60000000       3.60000000       5.40000000      58.93319400      215        1
Fe      12.60000000       5.40000000       3.60000000      55.84500000      216        4
Fe      10.80000000       3.60000000       7.20000000      55.84500000      217        4
Co      10.80000000       5.40000000       9.00000000      58.93319400      218        1
Co      12.60000000       3.60000000       9.00000000      58.93319400      219        1
Fe      12.60000000       5.40000000       7.20000000      55.84500000      220        4
Cr      10.80000000       3.60000000      10.80000000      51.99610000      221        3
Cr      10.80000000       5.40000000      12.60000000      51.99610000      222        3
Cr      12.60000000       3.60000000      12.60000000      51.99610000      223        3
Fe      12.60000000       5.40000000      10.80000000      55.84500000      224        4
Mn      10.80000000       7.20000000       0.00000000      54.93804400      225        5
Mn      10.80000000       9.00000000       1.80000000      54.93804400      226        5
Fe      12.60000000       7.20000000       1.80000000      55.84500000      227        4
Co      12.60000000       9.00000000       0.00000000      58.93319400      228        1
Cr      10.80000000       7.20000000       3.60000000      51.99610000      229        3
Co      10.80000000       9.00000000       5.40000000      58.93319400      230        1
Co      12.60000000       7.20000000       5.40000000      58.93319400      231        1
Ni      12.60000000       9.00000000       3.60000000      58.69340000      232        2
Fe      10.80000000       7.20000000       7.20000000      55.84500000      233        4
Fe      10.80000000       9.00000000       9.00000000      55.84500000      234        4
Fe      12.60000000       7.20000000       9.00000000      55.84500000      235        4
Co      12.60000000       9.00000000       7.20000000      58.93319400      236        1
Co      10.80000000       7.20000000      10.80000000      58.93319400      237        1
Ni      10.80000000       9.00000000      12.60000000      58.69340000      238        2
Fe      12.60000000       7.20000000      12.60000000      55.84500000      239        4
Co      12.60000000       9.00000000      10.80000000      58.93319400      240        1
Cr      10.80000000      10.80000000       0.00000000      51.99610000      241        3
Ni      10.80000000      12.60000000       1.80000000      58.69340000      242        2
Ni      12.60000000      10.80000000       1.80000000      58.69340000      243        2
Ni      12.60000000      12.60000000       0.00000000      58.69340000      244        2
Fe      10.80000000      10.80000000       3.60000000      55.84500000      245        4
Ni      10.80000000      12.60000000       5.40000000      58.69340000      246        2
Ni      12.60000000      10.80000000       5.40000000      58.69340000      247        2
Ni      12.60000000      12.60000000       3.60000000      58.69340000      248        2
Ni      10.80000000      10.80000000       7.20000000      58.69340000      249        2
Ni      10.80000000      12.60000000       9.00000000      58.69340000      250        2
Fe      12.60000000      10.80000000       9.00000000      55.84500000      251        4
Ni      12.60000000      12.60000000       7.20000000      58.69340000      252        2
Ni      10.80000000      10.80000000      10.80000000      58.69340000      253        2
Mn      10.80000000      12.60000000      12.60000000      54.93804400      254        5
Fe      12.60000000      10.80000000      12.60000000      55.84500000      255        4
Ni      12.60000000      12.60000000      10.80000000      58.69340000      256        2
