256
Lattice="14.4 0.0 0.0 0.0 14.4 0.0 0.0 0.0 14.4" Properties=species:S:1:pos:R:3:masses:R:1:id:I:1:type:I:1 comment="(written by ASE)" energy=-1025.10796779276 pbc="T T T"
Ni       0.00000000       0.00000000       0.00000000      58.69340000        1        2
Ni       0.00000000       1.80000000       1.80000000      58.69340000        2        2
Fe       1.80000000       0.00000000       1.80000000      55.84500000        3        4
Mn       1.80000000       1.80000000       0.00000000      54.93804400        4        5
Mn       0.00000000       0.00000000       3.60000000      54.93804400        5        5
Ni       0.00000000       1.80000000       5.40000000      58.69340000        6        2
Fe       1.80000000       0.00000000       5.40000000      55.84500000        7        4
Mn       1.80000000       1.80000000       3.60000000      54.93804400        8        5
Cr       0.00000000       0.00000000       7.20000000      51.99610000        9        3
Co       0.00000000       1.80000000       9.00000000      58.93319400       10        1
Cr       1.80000000       0.00000000       9.00000000      51.99610000       11        3
Mn       1.80000000       1.80000000       7.20000000      54.93804400       12        5
Ni       0.00000000       0.00000000      10.80000000      58.69340000       13        2
Fe       0.00000000       1.80000000      12.60000000      55.84500000       14        4
Mn       1.80000000       0.00000000      12.60000000      54.93804400       15        5
Fe       1.80000000       1.80000000      10.80000000      55.84500000       16        4
Co       0.00000000       3.60000000       0.00000000      58.93319400       17        1
Ni       0.00000000       5.40000000       1.80000000      58.69340000       18        2
Cr       1.80000000       3.60000000       1.80000000      51.99610000       19        3
Mn       1.80000000       5.40000000       0.00000000      54.93804400       20        5
Co       0.00000000       3.60000000       3.60000000      58.93319400       21        1
Mn       0.00000000       5.40000000       5.40000000      54.93804400       22        5
Fe       1.80000000       3.60000000       5.40000000      55.84500000       23        4
Mn       1.80000000       5.40000000       3.60000000      54.93804400       24        5
Ni       0.00000000       3.60000000       7.20000000      58.69340000       25        2
Fe       0.00000000       5.40000000       9.00000000      55.84500000       26        4
Fe       1.80000000       3.60000000       9.00000000      55.84500000       27        4
Mn       1.80000000       5.40000000       7.20000000      54.93804400       28        5
Ni       0.00000000       3.60000000      10.80000000      58.69340000       29        2
Ni       0.00000000       5.40000000      12.60000000      58.69340000       30        2
Cr       1.80000000       3.60000000      12.60000000      51.99610000       31        3
Mn       1.80000000       5.40000000      10.80000000      54.93804400       32        5
Co       0.00000000       7.20000000       0.00000000      58.93319400       33        1
Mn       0.00000000       9.00000000       1.80000000      54.93804400       34        5
Fe       1.80000000       7.20000000       1.80000000      55.84500000       35        4
Cr       1.80000000       9.00000000       0.00000000      51.99610000       36        3
Ni       0.00000000       7.20000000       3.60000000      58.69340000       37        2
Mn       0.00000000       9.00000000       5.40000000      54.93804400       38        5
Cr       1.80000000       7.20000000       5.40000000      51.99610000       39        3
Cr       1.80000000       9.00000000       3.60000000      51.99610000       40        3
Cr       0.00000000       7.20000000       7.20000000      51.99610000       41        3
Fe       0.00000000       9.00000000       9.00000000      55.84500000       42        4
Co       1.80000000       7.20000000       9.00000000      58.93319400       43        1
Co       1.80000000       9.00000000       7.20000000      58.93319400       44        1
Cr       0.00000000       7.20000000      10.80000000      51.99610000       45        3
Co       0.00000000       9.00000000      12.60000000      58.93319400       46        1
Mn       1.80000000       7.20000000      12.60000000      54.93804400       47        5
Ni       1.80000000       9.00000000      10.80000000      58.69340000       48        2
Ni       0.00000000      10.80000000       0.00000000      58.69340000       49        2
Mn       0.00000000      12.60000000       1.80000000      54.93804400       50        5
Co       1.80000000      10.80000000       1.80000000      58.93319400       51        1
Ni       1.80000000      12.60000000       0.00000000      58.69340000       52        2
Fe       0.00000000      10.80000000       3.60000000      55.84500000       53        4
Co       0.00000000      12.60000000       5.40000000      58.93319400       54        1
Co       1.80000000      10.80000000       5.40000000      58.93319400       55        1
Cr       1.80000000      12.60000000       3.60000000      51.99610000       56        3
Cr       0.00000000      10.80000000       7.20000000      51.99610000       57        3
Co       0.00000000      12.60000000       9.00000000      58.93319400       58        1
Mn       1.80000000      10.80000000       9.00000000      54.93804400       59        5
Mn       1.80000000      12.60000000       7.20000000      54.93804400       60        5
Fe       0.00000000      10.80000000      10.80000000      55.84500000       61        4
Fe       0.00000000      12.60000000      12.60000000      55.84500000       62        4
Mn       1.80000000      10.80000000      12.60000000      54.93804400       63        5
Ni       1.80000000      12.60000000      10.80000000      58.69340000       64        2
Co       3.60000000       0.00000000       0.00000000      58.93319400       65        1
Cr       3.60000000       1.80000000       1.80000000      51.99610000       66        3
Cr       5.40000000       0.00000000       1.80000000      51.99610000       67        3
Mn       5.40000000       1.80000000       0.00000000      54.93804400       68        5
Co       3.60000000       0.00000000       3.60000000      58.93319400       69        1
Ni       3.60000000       1.80000000       5.40000000      58.69340000       70        2
Cr       5.40000000       0.00000000       5.40000000      51.99610000       71        3
Mn       5.40000000       1.80000000       3.60000000      54.93804400       72        5
Fe       3.60000000       0.00000000       7.20000000      55.84500000       73        4
Ni       3.60000000       1.80000000       9.00000000      58.69340000       74        2
Cr       5.40000000       0.00000000       9.00000000      51.99610000       75        3
Co       5.40000000       1.80000000       7.20000000      58.93319400       76        1
Mn       3.60000000       0.00000000      10.80000000      54.93804400       77        5
Ni       3.60000000       1.80000000      12.60000000      58.69340000       78        2
Mn       5.40000000       0.00000000      12.60000000      54.93804400       79        5
Fe       5.40000000       1.80000000      10.80000000      55.84500000       80        4
Co       3.60000000       3.60000000       0.00000000      58.93319400       81        1
Co       3.60000000       5.40000000       1.80000000      58.93319400       82        1
Ni       5.40000000       3.60000000       1.80000000      58.69340000       83        2
Fe       5.40000000       5.40000000       0.00000000      55.84500000       84        4
Fe       3.60000000       3.60000000       3.60000000      55.84500000       85        4
Ni       3.60000000       5.40000000       5.40000000      58.69340000       86        2
Mn       5.40000000       3.60000000       5.40000000      54.93804400       87        5
Mn       5.40000000       5.40000000       3.60000000      54.93804400       88        5
Fe       3.60000000       3.60000000       7.20000000      55.84500000       89        4
Ni       3.60000000       5.40000000       9.00000000      58.69340000       90        2
Mn       5.40000000       3.60000000       9.00000000      54.93804400       91        5
Cr       5.40000000       5.40000000       7.20000000      51.99610000       92        3
Mn       3.60000000       3.60000000      10.80000000      54.93804400       93        5
Ni       3.60000000       5.40000000      12.60000000      58.69340000       94        2
Co       5.40000000       3.60000000      12.60000000      58.93319400       95        1
Cr       5.40000000       5.40000000      10.80000000      51.99610000       96        3
Cr       3.60000000       7.20000000       0.00000000      51.99610000       97        3
Mn       3.60000000       9.00000000       1.80000000      54.93804400       98        5
Cr       5.40000000       7.20000000       1.80000000      51.99610000       99        3
Co       5.40000000       9.00000000       0.00000000      58.93319400      100        1
Co       3.60000000       7.20000000       3.60000000      58.93319400      101        1
Mn       3.60000000       9.00000000       5.40000000      54.93804400      102        5
Fe       5.40000000       7.20000000       5.40000000      55.84500000      103        4
Co       5.40000000       9.00000000       3.60000000      58.93319400      104        1
Fe       3.60000000       7.20000000       7.20000000      55.84500000      105        4
Ni       3.60000000       9.00000000       9.00000000      58.69340000      106        2
Mn       5.40000000       7.20000000       9.00000000      54.93804400      107        5
Ni       5.40000000       9.00000000       7.20000000      58.69340000      108        2
Fe       3.60000000       7.20000000      10.80000000      55.84500000      109        4
Ni       3.60000000       9.00000000      12.60000000      58.69340000      110        2
Co       5.40000000       7.20000000      12.60000000      58.93319400      111        1
Fe       5.40000000       9.00000000      10.80000000      55.84500000      112        4
Fe       3.60000000      10.80000000       0.00000000      55.84500000      113        4
Mn       3.60000000      12.60000000       1.80000000      54.93804400      114        5
Fe       5.40000000      10.80000000       1.80000000      55.84500000      115        4
Cr       5.40000000      12.60000000       0.00000000      51.99610000      116        3
Cr       3.60000000      10.80000000       3.60000000      51.99610000      117        3
Ni       3.60000000      12.60000000       5.40000000      58.69340000      118        2
Fe       5.40000000      10.80000000       5.40000000      55.84500000      119        4
Mn       5.40000000      12.60000000       3.60000000      54.93804400      120        5
Fe       3.60000000      10.80000000       7.20000000      55.84500000      121        4
Co       3.60000000      12.60000000       9.00000000      58.93319400      122        1
Mn       5.40000000      10.80000000       9.00000000      54.93804400      123        5
Mn       5.40000000      12.60000000       7.20000000      54.93804400      124        5
Fe       3.60000000      10.80000000      10.80000000      55.84500000      125        4
Fe       3.60000000      12.60000000      12.60000000      55.84500000      126        4
Co       5.40000000      10.80000000      12.60000000      58.93319400      127        1
Cr       5.40000000      12.60000000      10.80000000      51.99610000      128        3
Fe       7.20000000       0.00000000       0.00000000      55.84500000      129        4
Ni       7.20000000       1.80000000       1.80000000      58.69340000      130        2
Fe       9.00000000       0.00000000       1.80000000      55.84500000      131        4
Ni       9.00000000       1.80000000       0.00000000      58.69340000      132        2
Co       7.20000000       0.00000000       3.60000000      58.93319400      133        1
Cr       7.20000000       1.80000000       5.40000000      51.99610000      134        3
Co       9.00000000       0.00000000       5.40000000      58.93319400      135        1
Cr       9.00000000       1.80000000       3.60000000      51.99610000      136        3
Fe       7.20000000       0.00000000       7.20000000      55.84500000      137        4
Cr       7.20000000       1.80000000       9.00000000      51.99610000      138        3
Ni       9.00000000       0.00000000       9.00000000      58.69340000      139        2
Mn       9.00000000       1.80000000       7.20000000      54.93804400      140        5
Co       7.20000000       0.00000000      10.80000000      58.93319400      141        1
Cr       7.20000000       1.80000000      12.60000000      51.99610000      142        3
Cr       9.00000000       0.00000000      12.60000000      51.99610000      143        3
Mn       9.00000000       1.80000000      10.80000000      54.93804400      144        5
Mn       7.20000000       3.60000000       0.00000000      54.93804400      145        5
Ni       7.20000000       5.40000000       1.80000000      58.69340000      146        2
Fe       9.00000000       3.60000000       1.80000000      55.84500000      147        4
Mn       9.00000000       5.40000000       0.00000000      54.93804400      148        5
Co       7.20000000       3.60000000       3.60000000      58.93319400      149        1
Cr       7.20000000       5.40000000       5.40000000      51.99610000      150        3
Co       9.00000000       3.60000000       5.40000000      58.93319400      151        1
Mn       9.00000000       5.40000000       3.60000000      54.93804400      152        5
Co       7.20000000       3.60000000       7.20000000      58.93319400      153        1
Fe       7.20000000       5.40000000       9.00000000      55.84500000      154        4
Ni       9.00000000       3.60000000       9.00000000      58.69340000      155        2
Cr       9.00000000       5.40000000       7.20000000      51.99610000      156        3
Co       7.20000000       3.60000000      10.80000000      58.93319400      157        1
Cr       7.20000000       5.40000000      12.60000000      51.99610000      158        3
Fe       9.00000000       3.60000000      12.60000000      55.84500000      159        4
Mn       9.00000000       5.40000000      10.80000000      54.93804400      160        5
Fe       7.20000000       7.20000000       0.00000000      55.84500000      161        4
Mn       7.20000000       9.00000000       1.80000000      54.93804400      162        5
Mn       9.00000000       7.20000000       1.80000000      54.93804400      163        5
Fe       9.00000000       9.00000000       0.00000000      55.84500000      164        4
Co       7.20000000       7.20000000       3.60000000      58.93319400      165        1
Cr       7.20000000       9.00000000       5.40000000      51.99610000      166        3
Co       9.00000000       7.20000000       5.40000000      58.93319400      167        1
Cr       9.00000000       9.00000000       3.60000000      51.99610000      168        3
Co       7.20000000       7.20000000       7.20000000      58.93319400      169        1
Cr       7.20000000       9.00000000       9.00000000      51.99610000      170        3
Ni       9.00000000       7.20000000       9.00000000      58.69340000      171        2
Mn       9.00000000       9.00000000       7.20000000      54.93804400      172        5
Fe       7.20000000       7.20000000      10.80000000      55.84500000      173        4
Ni       7.20000000       9.00000000      12.60000000      58.69340000      174        2
Co       9.00000000       7.20000000      12.60000000      58.93319400      175        1
Mn       9.00000000       9.00000000      10.80000000      54.93804400      176        5
Cr       7.20000000      10.80000000       0.00000000      51.99610000      177        3
Co       7.20000000      12.60000000       1.80000000      58.93319400      178        1
Co       9.00000000      10.80000000       1.80000000      58.93319400      179        1
Ni       9.00000000      12.60000000       0.00000000      58.69340000      180        2
Ni       7.20000000      10.80000000       3.60000000      58.69340000      181        2
Mn       7.20000000      12.60000000       5.40000000      54.93804400      182        5
Co       9.00000000      10.80000000       5.40000000      58.93319400      183        1
Cr       9.00000000      12.60000000       3.60000000      51.99610000      184        3
Fe       7.20000000      10.80000000       7.20000000      55.84500000      185        4
Co       7.20000000      12.60000000       9.00000000      58.93319400      186        1
Mn       9.00000000      10.80000000       9.00000000      54.93804400      187        5
Ni       9.00000000      12.60000000       7.20000000      58.69340000      188        2
Ni       7.20000000      10.80000000      10.80000000      58.69340000      189        2
Co       7.20000000      12.60000000      12.60000000      58.93319400      190        1
Mn       9.00000000      10.80000000      12.60000000      54.93804400      191        5
Cr       9.00000000      12.60000000      10.80000000      51.99610000      192        3
Mn      10.80000000       0.00000000       0.00000000      54.93804400      193        5
Co      10.80000000       1.80000000       1.80000000      58.93319400      194        1
Fe      12.60000000       0.00000000       1.80000000      55.84500000      195        4
Ni      12.60000000       1.80000000       0.00000000      58.69340000      196        2
Co      10.80000000       0.00000000       3.60000000      58.93319400      197        1
Cr      10.80000000       1.80000000       5.40000000      51.99610000      198        3
Co      12.60000000       0.00000000       5.40000000      58.93319400      199        1
Cr      12.60000000       1.80000000       3.60000000      51.99610000      200        3
Mn      10.80000000       0.00000000       7.20000000      54.93804400      201        5
Cr      10.80000000       1.80000000       9.00000000      51.99610000      202        3
Ni      12.60000000       0.00000000       9.00000000      58.69340000      203        2
Fe      12.60000000       1.80000000       7.20000000      55.84500000      204        4
Co      10.80000000       0.00000000      10.80000000      58.93319400      205        1
Fe      10.80000000       1.80000000      12.60000000      55.84500000      206        4
Mn      12.60000000       0.00000000      12.60000000      54.93804400      207        5
Fe      12.60000000       1.80000000      10.80000000      55.84500000      208        4
Mn      10.80000000       3.60000000       0.00000000      54.93804400      209        5
Ni      10.80000000       5.40000000       1.80000000      58.69340000      210        2
Fe      12.60000000       3.60000000       1.80000000      55.84500000      211        4
Fe      12.60000000       5.40000000       0.00000000      55.84500000      212        4
Ni      10.80000000       3.60000000       3.60000000      58.69340000      213        2
Cr      10.80000000       5.40000000       5.40000000      51.99610000      214        3
Fe      12.60000000       3.60000000       5.40000000      55.84500000      215        4
Mn      12.60000000       5.40000000       3.60000000      54.93804400      216        5
Co      10.80000000       3.60000000       7.20000000      58.93319400      217        1
Fe      10.80000000       5.40000000       9.00000000      55.84500000      218        4
Mn      12.60000000       3.60000000       9.00000000      54.93804400      219        5
Ni      12.60000000       5.40000000       7.20000000      58.69340000      220        2
Ni      10.80000000       3.60000000      10.80000000      58.69340000      221        2
Ni      10.80000000       5.40000000      12.60000000      58.69340000      222        2
Mn      12.60000000       3.60000000      12.60000000      54.93804400      223        5
Mn      12.60000000       5.40000000      10.80000000      54.93804400      224        5
Mn      10.80000000       7.20000000       0.00000000      54.93804400      225        5
Ni      10.80000000       9.00000000       1.80000000      58.69340000      226        2
Fe      12.60000000       7.20000000       1.80000000      55.84500000      227        4
Cr      12.60000000       9.00000000       0.00000000      51.99610000      228        3
Co      10.80000000       7.20000000       3.60000000      58.93319400      229        1
Cr      10.80000000       9.00000000       5.40000000      51.99610000      230        3
Co      12.60000000       7.20000000       5.40000000      58.93319400      231        1
Cr      12.60000000       9.00000000       3.60000000      51.99610000      232        3
Fe      10.80000000       7.20000000       7.20000000      55.84500000      233        4
Fe      10.80000000       9.00000000       9.00000000      55.84500000      234        4
Co      12.60000000       7.20000000       9.00000000      58.93319400      235        1
Mn      12.60000000       9.00000000       7.20000000      54.93804400      236        5
Fe      10.80000000       7.20000000      10.80000000      55.84500000      237        4
Cr      10.80000000       9.00000000      12.60000000      51.99610000      238        3
Mn      12.60000000       7.20000000      12.60000000      54.93804400      239        5
Mn      12.60000000       9.00000000      10.80000000      54.93804400      240        5
Mn      10.80000000      10.80000000       0.00000000      54.93804400      241        5
Cr      10.80000000      12.60000000       1.80000000      51.99610000      242        3
Co      12.60000000      10.80000000       1.80000000      58.93319400      243        1
Ni      12.60000000      12.60000000       0.00000000      58.69340000      244        2
Mn      10.80000000      10.80000000       3.60000000      54.93804400      245        5
Fe      10.80000000      12.60000000       5.40000000      55.84500000      246        4
Co      12.60000000      10.80000000       5.40000000      58.93319400      247        1
Cr      12.60000000      12.60000000       3.60000000      51.99610000      248        3
Cr      10.80000000      10.80000000       7.20000000      51.99610000      249        3
Fe      10.80000000      12.60000000       9.00000000      55.84500000      250        4
Ni      12.60000000      10.80000000       9.00000000      58.69340000      251        2
Mn      12.60000000      12.60000000       7.20000000      54.93804400      252        5
Ni      10.80000000      10.80000000      10.80000000      58.69340000      253        2
Fe      10.80000000      12.60000000      12.60000000      55.84500000      254        4
Fe      12.60000000      10.80000000      12.60000000      55.84500000      255        4
Mn      12.60000000      12.60000000      10.80000000      54.93804400      256        5
