256
Lattice="14.4 0.0 0.0 0.0 14.4 0.0 0.0 0.0 14.4" Properties=species:S:1:pos:R:3:masses:R:1:id:I:1:type:I:1 comment="(written by ASE)" energy=-1020.70334340399 pbc="T T T"
Mn       0.00000000       0.00000000       0.00000000      54.93804400        1        5
Fe       0.00000000       1.80000000       1.80000000      55.84500000        2        4
Ni       1.80000000       0.00000000       1.80000000      58.69340000        3        2
Ni       1.80000000       1.80000000       0.00000000      58.69340000        4        2
Ni       0.00000000       0.00000000       3.60000000      58.69340000        5        2
Fe       0.00000000       1.80000000       5.40000000      55.84500000        6        4
Co       1.80000000       0.00000000       5.40000000      58.93319400        7        1
Mn       1.80000000       1.80000000       3.60000000      54.93804400        8        5
Mn       0.00000000       0.00000000       7.20000000      54.93804400        9        5
Co       0.00000000       1.80000000       9.00000000      58.93319400       10        1
Cr       1.80000000       0.00000000       9.00000000      51.99610000       11        3
Cr       1.80000000       1.80000000       7.20000000      51.99610000       12        3
Mn       0.00000000       0.00000000      10.80000000      54.93804400       13        5
Fe       0.00000000       1.80000000      12.60000000      55.84500000       14        4
Mn       1.80000000       0.00000000      12.60000000      54.93804400       15        5
Cr       1.80000000       1.80000000      10.80000000      51.99610000       16        3
Fe       0.00000000       3.60000000       0.00000000      55.84500000       17        4
Cr       0.00000000       5.40000000       1.80000000      51.99610000       18        3
Mn       1.80000000       3.60000000       1.80000000      54.93804400       19        5
Ni       1.80000000       5.40000000       0.00000000      58.69340000       20        2
Mn       0.00000000       3.60000000       3.60000000      54.93804400       21        5
Cr       0.00000000       5.40000000       5.40000000      51.99610000       22        3
Co       1.80000000       3.60000000       5.40000000      58.93319400       23        1
Co       1.80000000       5.40000000       3.60000000      58.93319400       24        1
Cr       0.00000000       3.60000000       7.20000000      51.99610000       25        3
Co       0.00000000       5.40000000       9.00000000      58.93319400       26        1
Cr       1.80000000       3.60000000       9.00000000      51.99610000       27        3
Cr       1.80000000       5.40000000       7.20000000      51.99610000       28        3
Cr       0.00000000       3.60000000      10.80000000      51.99610000       29        3
Mn       0.00000000       5.40000000      12.60000000      54.93804400       30        5
Ni       1.80000000       3.60000000      12.60000000      58.69340000       31        2
Co       1.80000000       5.40000000      10.80000000      58.93319400       32        1
Ni       0.00000000       7.20000000       0.00000000      58.69340000       33        2
Fe       0.00000000       9.00000000       1.80000000      55.84500000       34        4
Mn       1.80000000       7.20000000       1.80000000      54.93804400       35        5
Mn       1.80000000       9.00000000       0.00000000      54.93804400       36        5
Co       0.00000000       7.20000000       3.60000000      58.93319400       37        1
Cr       0.00000000       9.00000000       5.40000000      51.99610000       38        3
Co       1.80000000       7.20000000       5.40000000      58.93319400       39        1
Mn       1.80000000       9.00000000       3.60000000      54.93804400       40        5
Co       0.00000000       7.20000000       7.20000000      58.93319400       41        1
Co       0.00000000       9.00000000       9.00000000      58.93319400       42        1
Cr       1.80000000       7.20000000       9.00000000      51.99610000       43        3
Mn       1.80000000       9.00000000       7.20000000      54.93804400       44        5
Cr       0.00000000       7.20000000      10.80000000      51.99610000       45        3
Co       0.00000000       9.00000000      12.60000000      58.93319400       46        1
Fe       1.80000000       7.20000000      12.60000000      55.84500000       47        4
Cr       1.80000000       9.00000000      10.80000000      51.99610000       48        3
Ni       0.00000000      10.80000000       0.00000000      58.69340000       49        2
Fe       0.00000000      12.60000000       1.80000000      55.84500000       50        4
Mn       1.80000000      10.80000000       1.80000000      54.93804400       51        5
Ni       1.80000000      12.60000000       0.00000000      58.69340000       52        2
Mn       0.00000000      10.80000000       3.60000000      54.93804400       53        5
Mn       0.00000000      12.60000000       5.40000000      54.93804400       54        5
Co       1.80000000      10.80000000       5.40000000      58.93319400       55        1
Mn       1.80000000      12.60000000       3.60000000      54.93804400       56        5
Cr       0.00000000      10.80000000       7.20000000      51.99610000       57        3
Mn       0.00000000      12.60000000       9.00000000      54.93804400       58        5
Co       1.80000000      10.80000000       9.00000000      58.93319400       59        1
Co       1.80000000      12.60000000       7.20000000      58.93319400       60        1
Cr       0.00000000      10.80000000      10.80000000      51.99610000       61        3
Fe       0.00000000      12.60000000      12.60000000      55.84500000       62        4
Fe       1.80000000      10.80000000      12.60000000      55.84500000       63        4
Mn       1.80000000      12.60000000      10.80000000      54.93804400       64        5
Mn       3.60000000       0.00000000       0.00000000      54.93804400       65        5
Fe       3.60000000       1.80000000       1.80000000      55.84500000       66        4
Mn       5.40000000       0.00000000       1.80000000      54.93804400       67        5
Co       5.40000000       1.80000000       0.00000000      58.93319400       68        1
Cr       3.60000000       0.00000000       3.60000000      51.99610000       69        3
Cr       3.60000000       1.80000000       5.40000000      51.99610000       70        3
Co       5.40000000       0.00000000       5.40000000      58.93319400       71        1
Co       5.40000000       1.80000000       3.60000000      58.93319400       72        1
Cr       3.60000000       0.00000000       7.20000000      51.99610000       73        3
Co       3.60000000       1.80000000       9.00000000      58.93319400       74        1
Co       5.40000000       0.00000000       9.00000000      58.93319400       75        1
Cr       5.40000000       1.80000000       7.20000000      51.99610000       76        3
Co       3.60000000       0.00000000      10.80000000      58.93319400       77        1
Fe       3.60000000       1.80000000      12.60000000      55.84500000       78        4
Cr       5.40000000       0.00000000      12.60000000      51.99610000       79        3
Cr       5.40000000       1.80000000      10.80000000      51.99610000       80        3
Ni       3.60000000       3.60000000       0.00000000      58.69340000       81        2
Mn       3.60000000       5.40000000       1.80000000      54.93804400       82        5
Mn       5.40000000       3.60000000       1.80000000      54.93804400       83        5
Fe       5.40000000       5.40000000       0.00000000      55.84500000       84        4
Cr       3.60000000       3.60000000       3.60000000      51.99610000       85        3
Cr       3.60000000       5.40000000       5.40000000      51.99610000       86        3
Co       5.40000000       3.60000000       5.40000000      58.93319400       87        1
Co       5.40000000       5.40000000       3.60000000      58.93319400       88        1
Co       3.60000000       3.60000000       7.20000000      58.93319400       89        1
Cr       3.60000000       5.40000000       9.00000000      51.99610000       90        3
Mn       5.40000000       3.60000000       9.00000000      54.93804400       91        5
Co       5.40000000       5.40000000       7.20000000      58.93319400       92        1
Fe       3.60000000       3.60000000      10.80000000      55.84500000       93        4
Mn       3.60000000       5.40000000      12.60000000      54.93804400       94        5
Ni       5.40000000       3.60000000      12.60000000      58.69340000       95        2
Cr       5.40000000       5.40000000      10.80000000      51.99610000       96        3
Fe       3.60000000       7.20000000       0.00000000      55.84500000       97        4
Co       3.60000000       9.00000000       1.80000000      58.93319400       98        1
Fe       5.40000000       7.20000000       1.80000000      55.84500000       99        4
Mn       5.40000000       9.00000000       0.00000000      54.93804400      100        5
Mn       3.60000000       7.20000000       3.60000000      54.93804400      101        5
Fe       3.60000000       9.00000000       5.40000000      55.84500000      102        4
Ni       5.40000000       7.20000000       5.40000000      58.69340000      103        2
Ni       5.40000000       9.00000000       3.60000000      58.69340000      104        2
Mn       3.60000000       7.20000000       7.20000000      54.93804400      105        5
Co       3.60000000       9.00000000       9.00000000      58.93319400      106        1
Cr       5.40000000       7.20000000       9.00000000      51.99610000      107        3
Fe       5.40000000       9.00000000       7.20000000      55.84500000      108        4
Co       3.60000000       7.20000000      10.80000000      58.93319400      109        1
Mn       3.60000000       9.00000000      12.60000000      54.93804400      110        5
Co       5.40000000       7.20000000      12.60000000      58.93319400      111        1
Cr       5.40000000       9.00000000      10.80000000      51.99610000      112        3
Mn       3.60000000      10.80000000       0.00000000      54.93804400      113        5
Fe       3.60000000      12.60000000       1.80000000      55.84500000      114        4
Mn       5.40000000      10.80000000       1.80000000      54.93804400      115        5
Mn       5.40000000      12.60000000       0.00000000      54.93804400      116        5
Mn       3.60000000      10.80000000       3.60000000      54.93804400      117        5
Cr       3.60000000      12.60000000       5.40000000      51.99610000      118        3
Mn       5.40000000      10.80000000       5.40000000      54.93804400      119        5
Mn       5.40000000      12.60000000       3.60000000      54.93804400      120        5
Cr       3.60000000      10.80000000       7.20000000      51.99610000      121        3
Fe       3.60000000      12.60000000       9.00000000      55.84500000      122        4
Cr       5.40000000      10.80000000       9.00000000      51.99610000      123        3
Co       5.40000000      12.60000000       7.20000000      58.93319400      124        1
Cr       3.60000000      10.80000000      10.80000000      51.99610000      125        3
Co       3.60000000      12.60000000      12.60000000      58.93319400      126        1
Co       5.40000000      10.80000000      12.60000000      58.93319400      127        1
Cr       5.40000000      12.60000000      10.80000000      51.99610000      128        3
Mn       7.20000000       0.00000000       0.00000000      54.93804400      129        5
Mn       7.20000000       1.80000000       1.80000000      54.93804400      130        5
Ni       9.00000000       0.00000000       1.80000000      58.69340000      131        2
Fe       9.00000000       1.80000000       0.00000000      55.84500000      132        4
Ni       7.20000000       0.00000000       3.60000000      58.69340000      133        2
Mn       7.20000000       1.80000000       5.40000000      54.93804400      134        5
Fe       9.00000000       0.00000000       5.40000000      55.84500000      135        4
Mn       9.00000000       1.80000000       3.60000000      54.93804400      136        5
Cr       7.20000000       0.00000000       7.20000000      51.99610000      137        3
Co       7.20000000       1.80000000       9.00000000      58.93319400      138        1
Co       9.00000000       0.00000000       9.00000000      58.93319400      139        1
Mn       9.00000000       1.80000000       7.20000000      54.93804400      140        5
Cr       7.20000000       0.00000000      10.80000000      51.99610000      141        3
Mn       7.20000000       1.80000000      12.60000000      54.93804400      142        5
Co       9.00000000       0.00000000      12.60000000      58.93319400      143        1
Cr       9.00000000       1.80000000      10.80000000      51.99610000      144        3
Mn       7.20000000       3.60000000       0.00000000      54.93804400      145        5
Mn       7.20000000       5.40000000       1.80000000      54.93804400      146        5
Mn       9.00000000       3.60000000       1.80000000      54.93804400      147        5
Fe       9.00000000       5.40000000       0.00000000      55.84500000      148        4
Mn       7.20000000       3.60000000       3.60000000      54.93804400      149        5
Ni       7.20000000       5.40000000       5.40000000      58.69340000      150        2
Mn       9.00000000       3.60000000       5.40000000      54.93804400      151        5
Fe       9.00000000       5.40000000       3.60000000      55.84500000      152        4
Mn       7.20000000       3.60000000       7.20000000      54.93804400      153        5
Fe       7.20000000       5.40000000       9.00000000      55.84500000      154        4
Mn       9.00000000       3.60000000       9.00000000      54.93804400      155        5
Fe       9.00000000       5.40000000       7.20000000      55.84500000      156        4
Fe       7.20000000       3.60000000      10.80000000      55.84500000      157        4
Mn       7.20000000       5.40000000      12.60000000      54.93804400      158        5
Co       9.00000000       3.60000000      12.60000000      58.93319400      159        1
Cr       9.00000000       5.40000000      10.80000000      51.99610000      160        3
Ni       7.20000000       7.20000000       0.00000000      58.69340000      161        2
Ni       7.20000000       9.00000000       1.80000000      58.69340000      162        2
Ni       9.00000000       7.20000000       1.80000000      58.69340000      163        2
Ni       9.00000000       9.00000000       0.00000000      58.69340000      164        2
Fe       7.20000000       7.20000000       3.60000000      55.84500000      165        4
Fe       7.20000000       9.00000000       5.40000000      55.84500000      166        4
Ni       9.00000000       7.20000000       5.40000000      58.69340000      167        2
Ni       9.00000000       9.00000000       3.60000000      58.69340000      168        2
Ni       7.20000000       7.20000000       7.20000000      58.69340000      169        2
Fe       7.20000000       9.00000000       9.00000000      55.84500000      170        4
Ni       9.00000000       7.20000000       9.00000000      58.69340000      171        2
Fe       9.00000000       9.00000000       7.20000000      55.84500000      172        4
Co       7.20000000       7.20000000      10.80000000      58.93319400      173        1
Cr       7.20000000       9.00000000      12.60000000      51.99610000      174        3
Fe       9.00000000       7.20000000      12.60000000      55.84500000      175        4
Mn       9.00000000       9.00000000      10.80000000      54.93804400      176        5
Fe       7.20000000      10.80000000       0.00000000      55.84500000      177        4
Fe       7.20000000      12.60000000       1.80000000      55.84500000      178        4
Ni       9.00000000      10.80000000       1.80000000      58.69340000      179        2
Ni       9.00000000      12.60000000       0.00000000      58.69340000      180        2
Fe       7.20000000      10.80000000       3.60000000      55.84500000      181        4
Fe       7.20000000      12.60000000       5.40000000      55.84500000      182        4
Fe       9.00000000      10.80000000       5.40000000      55.84500000      183        4
Ni       9.00000000      12.60000000       3.60000000      58.69340000      184        2
Cr       7.20000000      10.80000000       7.20000000      51.99610000      185        3
Co       7.20000000      12.60000000       9.00000000      58.93319400      186        1
Mn       9.00000000      10.80000000       9.00000000      54.93804400      187        5
Mn       9.00000000      12.60000000       7.20000000      54.93804400      188        5
Co       7.20000000      10.80000000      10.80000000      58.93319400      189        1
Co       7.20000000      12.60000000      12.60000000      58.93319400      190        1
Fe       9.00000000      10.80000000      12.60000000      55.84500000      191        4
Cr       9.00000000      12.60000000      10.80000000      51.99610000      192        3
Ni      10.80000000       0.00000000       0.00000000      58.69340000      193        2
Fe      10.80000000       1.80000000       1.80000000      55.84500000      194        4
Ni      12.60000000       0.00000000       1.80000000      58.69340000      195        2
Fe      12.60000000       1.80000000       0.00000000      55.84500000      196        4
Ni      10.80000000       0.00000000       3.60000000      58.69340000      197        2
Mn      10.80000000       1.80000000       5.40000000      54.93804400      198        5
Fe      12.60000000       0.00000000       5.40000000      55.84500000      199        4
Ni      12.60000000       1.80000000       3.60000000      58.69340000      200        2
Co      10.80000000       0.00000000       7.20000000      58.93319400      201        1
Cr      10.80000000       1.80000000       9.00000000      51.99610000      202        3
Mn      12.60000000       0.00000000       9.00000000      54.93804400      203        5
Cr      12.60000000       1.80000000       7.20000000      51.99610000      204        3
Co      10.80000000       0.00000000      10.80000000      58.93319400      205        1
Cr      10.80000000       1.80000000      12.60000000      51.99610000      206        3
Ni      12.60000000       0.00000000      12.60000000      58.69340000      207        2
Cr      12.60000000       1.80000000      10.80000000      51.99610000      208        3
Mn      10.80000000       3.60000000       0.00000000      54.93804400      209        5
Ni      10.80000000       5.40000000       1.80000000      58.69340000      210        2
Ni      12.60000000       3.60000000       1.80000000      58.69340000      211        2
Fe      12.60000000       5.40000000       0.00000000      55.84500000      212        4
Fe      10.80000000       3.60000000       3.60000000      55.84500000      213        4
Cr      10.80000000       5.40000000       5.40000000      51.99610000      214        3
Co      12.60000000       3.60000000       5.40000000      58.93319400      215        1
Mn      12.60000000       5.40000000       3.60000000      54.93804400      216        5
Co      10.80000000       3.60000000       7.20000000      58.93319400      217        1
Cr      10.80000000       5.40000000       9.00000000      51.99610000      218        3
Co      12.60000000       3.60000000       9.00000000      58.93319400      219        1
Cr      12.60000000       5.40000000       7.20000000      51.99610000      220        3
Co      10.80000000       3.60000000      10.80000000      58.93319400      221        1
Mn      10.80000000       5.40000000      12.60000000      54.93804400      222        5
Mn      12.60000000       3.60000000      12.60000000      54.93804400      223        5
Co      12.60000000       5.40000000      10.80000000      58.93319400      224        1
Ni      10.80000000       7.20000000       0.00000000      58.69340000      225        2
Fe      10.80000000       9.00000000       1.80000000      55.84500000      226        4
Mn      12.60000000       7.20000000       1.80000000      54.93804400      227        5
Fe      12.60000000       9.00000000       0.00000000      55.84500000      228        4
Fe      10.80000000       7.20000000       3.60000000      55.84500000      229        4
Ni      10.80000000       9.00000000       5.40000000      58.69340000      230        2
Co      12.60000000       7.20000000       5.40000000      58.93319400      231        1
Ni      12.60000000       9.00000000       3.60000000      58.69340000      232        2
Fe      10.80000000       7.20000000       7.20000000      55.84500000      233        4
Ni      10.80000000       9.00000000       9.00000000      58.69340000      234        2
Cr      12.60000000       7.20000000       9.00000000      51.99610000      235        3
Co      12.60000000       9.00000000       7.20000000      58.93319400      236        1
Fe      10.80000000       7.20000000      10.80000000      55.84500000      237        4
Ni      10.80000000       9.00000000      12.60000000      58.69340000      238        2
Mn      12.60000000       7.20000000      12.60000000      54.93804400      239        5
Co      12.60000000       9.00000000      10.80000000      58.93319400      240        1
Ni      10.80000000      10.80000000       0.00000000      58.69340000      241        2
Fe      10.80000000      12.60000000       1.80000000      55.84500000      242        4
Ni      12.60000000      10.80000000       1.80000000      58.69340000      243        2
Fe      12.60000000      12.60000000       0.00000000      55.84500000      244        4
Ni      10.80000000      10.80000000       3.60000000      58.69340000      245        2
Ni      10.80000000      12.60000000       5.40000000      58.69340000      246        2
Fe      12.60000000      10.80000000       5.40000000      55.84500000      247        4
Ni      12.60000000      12.60000000       3.60000000      58.69340000      248        2
Fe      10.80000000      10.80000000       7.20000000      55.84500000      249        4
Mn      10.80000000      12.60000000       9.00000000      54.93804400      250        5
Mn      12.60000000      10.80000000       9.00000000      54.93804400      251        5
Ni      12.60000000      12.60000000       7.20000000      58.69340000      252        2
Fe      10.80000000      10.80000000      10.80000000      55.84500000      253        4
Ni      10.80000000      12.60000000      12.60000000      58.69340000      254        2
Ni      12.60000000      10.80000000      12.60000000      58.69340000      255        2
Fe      12.60000000      12.60000000      10.80000000      55.84500000      256        4
