256
Lattice="14.4 0.0 0.0 0.0 14.4 0.0 0.0 0.0 14.4" Properties=species:S:1:pos:R:3:masses:R:1:id:I:1:type:I:1 comment="(written by ASE)" energy=-1022.80981076358 pbc="T T T"
Mn       0.00000000       0.00000000       0.00000000      54.93804400        1        5
Co       0.00000000       1.80000000       1.80000000      58.93319400        2        1
Fe       1.80000000       0.00000000       1.80000000      55.84500000        3        4
Ni       1.80000000       1.80000000       0.00000000      58.69340000        4        2
Ni       0.00000000       0.00000000       3.60000000      58.69340000        5        2
Co       0.00000000       1.80000000       5.40000000      58.93319400        6        1
Cr       1.80000000       0.00000000       5.40000000      51.99610000        7        3
Co       1.80000000       1.80000000       3.60000000      58.93319400        8        1
Cr       0.00000000       0.00000000       7.20000000      51.99610000        9        3
Co       0.00000000       1.80000000       9.00000000      58.93319400       10        1
Ni       1.80000000       0.00000000       9.00000000      58.69340000       11        2
Co       1.80000000       1.80000000       7.20000000      58.93319400       12        1
Cr       0.00000000       0.00000000      10.80000000      51.99610000       13        3
Mn       0.00000000       1.80000000      12.60000000      54.93804400       14        5
Mn       1.80000000       0.00000000      12.60000000      54.93804400       15        5
Ni       1.80000000       1.80000000      10.80000000      58.69340000       16        2
Ni       0.00000000       3.60000000       0.00000000      58.69340000       17        2
Co       0.00000000       5.40000000       1.80000000      58.93319400       18        1
Co       1.80000000       3.60000000       1.80000000      58.93319400       19        1
Fe       1.80000000       5.40000000       0.00000000      55.84500000       20        4
Co       0.00000000       3.60000000       3.60000000      58.93319400       21        1
Fe       0.00000000       5.40000000       5.40000000      55.84500000       22        4
Co       1.80000000       3.60000000       5.40000000      58.93319400       23        1
Fe       1.80000000       5.40000000       3.60000000      55.84500000       24        4
Co       0.00000000       3.60000000       7.20000000      58.93319400       25        1
Co       0.00000000       5.40000000       9.00000000      58.93319400       26        1
Ni       1.80000000       3.60000000       9.00000000      58.69340000       27        2
Co       1.80000000       5.40000000       7.20000000      58.93319400       28        1
Cr       0.00000000       3.60000000      10.80000000      51.99610000       29        3
Fe       0.00000000       5.40000000      12.60000000      55.84500000       30        4
Mn       1.80000000       3.60000000      12.60000000      54.93804400       31        5
Ni       1.80000000       5.40000000      10.80000000      58.69340000       32        2
Fe       0.00000000       7.20000000       0.00000000      55.84500000       33        4
Cr       0.00000000       9.00000000       1.80000000      51.99610000       34        3
Ni       1.80000000       7.20000000       1.80000000      58.69340000       35        2
Fe       1.80000000       9.00000000       0.00000000      55.84500000       36        4
Co       0.00000000       7.20000000       3.60000000      58.93319400       37        1
Fe       0.00000000       9.00000000       5.40000000      55.84500000       38        4
Fe       1.80000000       7.20000000       5.40000000      55.84500000       39        4
Fe       1.80000000       9.00000000       3.60000000      55.84500000       40        4
Co       0.00000000       7.20000000       7.20000000      58.93319400       41        1
Co       0.00000000       9.00000000       9.00000000      58.93319400       42        1
Co       1.80000000       7.20000000       9.00000000      58.93319400       43        1
Fe       1.80000000       9.00000000       7.20000000      55.84500000       44        4
Co       0.00000000       7.20000000      10.80000000      58.93319400       45        1
Fe       0.00000000       9.00000000      12.60000000      55.84500000       46        4
Fe       1.80000000       7.20000000      12.60000000      55.84500000       47        4
Co       1.80000000       9.00000000      10.80000000      58.93319400       48        1
Mn       0.00000000      10.80000000       0.00000000      54.93804400       49        5
Mn       0.00000000      12.60000000       1.80000000      54.93804400       50        5
Fe       1.80000000      10.80000000       1.80000000      55.84500000       51        4
Ni       1.80000000      12.60000000       0.00000000      58.69340000       52        2
Cr       0.00000000      10.80000000       3.60000000      51.99610000       53        3
Ni       0.00000000      12.60000000       5.40000000      58.69340000       54        2
Mn       1.80000000      10.80000000       5.40000000      54.93804400       55        5
Mn       1.80000000      12.60000000       3.60000000      54.93804400       56        5
Fe       0.00000000      10.80000000       7.20000000      55.84500000       57        4
Cr       0.00000000      12.60000000       9.00000000      51.99610000       58        3
Cr       1.80000000      10.80000000       9.00000000      51.99610000       59        3
Cr       1.80000000      12.60000000       7.20000000      51.99610000       60        3
Cr       0.00000000      10.80000000      10.80000000      51.99610000       61        3
Mn       0.00000000      12.60000000      12.60000000      54.93804400       62        5
Fe       1.80000000      10.80000000      12.60000000      55.84500000       63        4
Ni       1.80000000      12.60000000      10.80000000      58.69340000       64        2
Fe       3.60000000       0.00000000       0.00000000      55.84500000       65        4
Co       3.60000000       1.80000000       1.80000000      58.93319400       66        1
Fe       5.40000000       0.00000000       1.80000000      55.84500000       67        4
Mn       5.40000000       1.80000000       0.00000000      54.93804400       68        5
Co       3.60000000       0.00000000       3.60000000      58.93319400       69        1
Co       3.60000000       1.80000000       5.40000000      58.93319400       70        1
Co       5.40000000       0.00000000       5.40000000      58.93319400       71        1
Co       5.40000000       1.80000000       3.60000000      58.93319400       72        1
Cr       3.60000000       0.00000000       7.20000000      51.99610000       73        3
Cr       3.60000000       1.80000000       9.00000000      51.99610000       74        3
Mn       5.40000000       0.00000000       9.00000000      54.93804400       75        5
Cr       5.40000000       1.80000000       7.20000000      51.99610000       76        3
Cr       3.60000000       0.00000000      10.80000000      51.99610000       77        3
Mn       3.60000000       1.80000000      12.60000000      54.93804400       78        5
Ni       5.40000000       0.00000000      12.60000000      58.69340000       79        2
Mn       5.40000000       1.80000000      10.80000000      54.93804400       80        5
Cr       3.60000000       3.60000000       0.00000000      51.99610000       81        3
Fe       3.60000000       5.40000000       1.80000000      55.84500000       82        4
Cr       5.40000000       3.60000000       1.80000000      51.99610000       83        3
Cr       5.40000000       5.40000000       0.00000000      51.99610000       84        3
Co       3.60000000       3.60000000       3.60000000      58.93319400       85        1
Ni       3.60000000       5.40000000       5.40000000      58.69340000       86        2
Fe       5.40000000       3.60000000       5.40000000      55.84500000       87        4
Fe       5.40000000       5.40000000       3.60000000      55.84500000       88        4
Fe       3.60000000       3.60000000       7.20000000      55.84500000       89        4
Fe       3.60000000       5.40000000       9.00000000      55.84500000       90        4
Mn       5.40000000       3.60000000       9.00000000      54.93804400       91        5
Fe       5.40000000       5.40000000       7.20000000      55.84500000       92        4
Mn       3.60000000       3.60000000      10.80000000      54.93804400       93        5
Ni       3.60000000       5.40000000      12.60000000      58.69340000       94        2
Mn       5.40000000       3.60000000      12.60000000      54.93804400       95        5
Fe       5.40000000       5.40000000      10.80000000      55.84500000       96        4
Cr       3.60000000       7.20000000       0.00000000      51.99610000       97        3
Fe       3.60000000       9.00000000       1.80000000      55.84500000       98        4
Mn       5.40000000       7.20000000       1.80000000      54.93804400       99        5
Fe       5.40000000       9.00000000       0.00000000      55.84500000      100        4
Fe       3.60000000       7.20000000       3.60000000      55.84500000      101        4
Fe       3.60000000       9.00000000       5.40000000      55.84500000      102        4
Mn       5.40000000       7.20000000       5.40000000      54.93804400      103        5
Fe       5.40000000       9.00000000       3.60000000      55.84500000      104        4
Fe       3.60000000       7.20000000       7.20000000      55.84500000      105        4
Fe       3.60000000       9.00000000       9.00000000      55.84500000      106        4
Fe       5.40000000       7.20000000       9.00000000      55.84500000      107        4
Fe       5.40000000       9.00000000       7.20000000      55.84500000      108        4
Fe       3.60000000       7.20000000      10.80000000      55.84500000      109        4
Fe       3.60000000       9.00000000      12.60000000      55.84500000      110        4
Mn       5.40000000       7.20000000      12.60000000      54.93804400      111        5
Fe       5.40000000       9.00000000      10.80000000      55.84500000      112        4
Fe       3.60000000      10.80000000       0.00000000      55.84500000      113        4
Fe       3.60000000      12.60000000       1.80000000      55.84500000      114        4
Fe       5.40000000      10.80000000       1.80000000      55.84500000      115        4
Fe       5.40000000      12.60000000       0.00000000      55.84500000      116        4
Fe       3.60000000      10.80000000       3.60000000      55.84500000      117        4
Ni       3.60000000      12.60000000       5.40000000      58.69340000      118        2
Ni       5.40000000      10.80000000       5.40000000      58.69340000      119        2
Co       5.40000000      12.60000000       3.60000000      58.93319400      120        1
Mn       3.60000000      10.80000000       7.20000000      54.93804400      121        5
Cr       3.60000000      12.60000000       9.00000000      51.99610000      122        3
Mn       5.40000000      10.80000000       9.00000000      54.93804400      123        5
Ni       5.40000000      12.60000000       7.20000000      58.69340000      124        2
Ni       3.60000000      10.80000000      10.80000000      58.69340000      125        2
Mn       3.60000000      12.60000000      12.60000000      54.93804400      126        5
Fe       5.40000000      10.80000000      12.60000000      55.84500000      127        4
Mn       5.40000000      12.60000000      10.80000000      54.93804400      128        5
Mn       7.20000000       0.00000000       0.00000000      54.93804400      129        5
Cr       7.20000000       1.80000000       1.80000000      51.99610000      130        3
Co       9.00000000       0.00000000       1.80000000      58.93319400      131        1
Ni       9.00000000       1.80000000       0.00000000      58.69340000      132        2
Co       7.20000000       0.00000000       3.60000000      58.93319400      133        1
Co       7.20000000       1.80000000       5.40000000      58.93319400      134        1
Co       9.00000000       0.00000000       5.40000000      58.93319400      135        1
Co       9.00000000       1.80000000       3.60000000      58.93319400      136        1
Cr       7.20000000       0.00000000       7.20000000      51.99610000      137        3
Ni       7.20000000       1.80000000       9.00000000      58.69340000      138        2
Cr       9.00000000       0.00000000       9.00000000      51.99610000      139        3
Cr       9.00000000       1.80000000       7.20000000      51.99610000      140        3
Mn       7.20000000       0.00000000      10.80000000      54.93804400      141        5
Mn       7.20000000       1.80000000      12.60000000      54.93804400      142        5
Mn       9.00000000       0.00000000      12.60000000      54.93804400      143        5
Cr       9.00000000       1.80000000      10.80000000      51.99610000      144        3
Ni       7.20000000       3.60000000       0.00000000      58.69340000      145        2
Cr       7.20000000       5.40000000       1.80000000      51.99610000      146        3
Cr       9.00000000       3.60000000       1.80000000      51.99610000      147        3
Mn       9.00000000       5.40000000       0.00000000      54.93804400      148        5
Ni       7.20000000       3.60000000       3.60000000      58.69340000      149        2
Fe       7.20000000       5.40000000       5.40000000      55.84500000      150        4
Co       9.00000000       3.60000000       5.40000000      58.93319400      151        1
Cr       9.00000000       5.40000000       3.60000000      51.99610000      152        3
Ni       7.20000000       3.60000000       7.20000000      58.69340000      153        2
Mn       7.20000000       5.40000000       9.00000000      54.93804400      154        5
Cr       9.00000000       3.60000000       9.00000000      51.99610000      155        3
Cr       9.00000000       5.40000000       7.20000000      51.99610000      156        3
Mn       7.20000000       3.60000000      10.80000000      54.93804400      157        5
Mn       7.20000000       5.40000000      12.60000000      54.93804400      158        5
Mn       9.00000000       3.60000000      12.60000000      54.93804400      159        5
Ni       9.00000000       5.40000000      10.80000000      58.69340000      160        2
Mn       7.20000000       7.20000000       0.00000000      54.93804400      161        5
Mn       7.20000000       9.00000000       1.80000000      54.93804400      162        5
Mn       9.00000000       7.20000000       1.80000000      54.93804400      163        5
Ni       9.00000000       9.00000000       0.00000000      58.69340000      164        2
Mn       7.20000000       7.20000000       3.60000000      54.93804400      165        5
Mn       7.20000000       9.00000000       5.40000000      54.93804400      166        5
Cr       9.00000000       7.20000000       5.40000000      51.99610000      167        3
Ni       9.00000000       9.00000000       3.60000000      58.69340000      168        2
Mn       7.20000000       7.20000000       7.20000000      54.93804400      169        5
Fe       7.20000000       9.00000000       9.00000000      55.84500000      170        4
Fe       9.00000000       7.20000000       9.00000000      55.84500000      171        4
Mn       9.00000000       9.00000000       7.20000000      54.93804400      172        5
Fe       7.20000000       7.20000000      10.80000000      55.84500000      173        4
Mn       7.20000000       9.00000000      12.60000000      54.93804400      174        5
Mn       9.00000000       7.20000000      12.60000000      54.93804400      175        5
Fe       9.00000000       9.00000000      10.80000000      55.84500000      176        4
Mn       7.20000000      10.80000000       0.00000000      54.93804400      177        5
Fe       7.20000000      12.60000000       1.80000000      55.84500000      178        4
Mn       9.00000000      10.80000000       1.80000000      54.93804400      179        5
Ni       9.00000000      12.60000000       0.00000000      58.69340000      180        2
Fe       7.20000000      10.80000000       3.60000000      55.84500000      181        4
Cr       7.20000000      12.60000000       5.40000000      51.99610000      182        3
Mn       9.00000000      10.80000000       5.40000000      54.93804400      183        5
Ni       9.00000000      12.60000000       3.60000000      58.69340000      184        2
Mn       7.20000000      10.80000000       7.20000000      54.93804400      185        5
Cr       7.20000000      12.60000000       9.00000000      51.99610000      186        3
Fe       9.00000000      10.80000000       9.00000000      55.84500000      187        4
Ni       9.00000000      12.60000000       7.20000000      58.69340000      188        2
Mn       7.20000000      10.80000000      10.80000000      54.93804400      189        5
Mn       7.20000000      12.60000000      12.60000000      54.93804400      190        5
Mn       9.00000000      10.80000000      12.60000000      54.93804400      191        5
Ni       9.00000000      12.60000000      10.80000000      58.69340000      192        2
Mn      10.80000000       0.00000000       0.00000000      54.93804400      193        5
Ni      10.80000000       1.80000000       1.80000000      58.69340000      194        2
Ni      12.60000000       0.00000000       1.80000000      58.69340000      195        2
Cr      12.60000000       1.80000000       0.00000000      51.99610000      196        3
Co      10.80000000       0.00000000       3.60000000      58.93319400      197        1
Co      10.80000000       1.80000000       5.40000000      58.93319400      198        1
Cr      12.60000000       0.00000000       5.40000000      51.99610000      199        3
Co      12.60000000       1.80000000       3.60000000      58.93319400      200        1
Ni      10.80000000       0.00000000       7.20000000      58.69340000      201        2
Cr      10.80000000       1.80000000       9.00000000      51.99610000      202        3
Ni      12.60000000       0.00000000       9.00000000      58.69340000      203        2
Co      12.60000000       1.80000000       7.20000000      58.93319400      204        1
Mn      10.80000000       0.00000000      10.80000000      54.93804400      205        5
Mn      10.80000000       1.80000000      12.60000000      54.93804400      206        5
Ni      12.60000000       0.00000000      12.60000000      58.69340000      207        2
Mn      12.60000000       1.80000000      10.80000000      54.93804400      208        5
Cr      10.80000000       3.60000000       0.00000000      51.99610000      209        3
Ni      10.80000000       5.40000000       1.80000000      58.69340000      210        2
Cr      12.60000000       3.60000000       1.80000000      51.99610000      211        3
Cr      12.60000000       5.40000000       0.00000000      51.99610000      212        3
Co      10.80000000       3.60000000       3.60000000      58.93319400      213        1
Ni      10.80000000       5.40000000       5.40000000      58.69340000      214        2
Ni      12.60000000       3.60000000       5.40000000      58.69340000      215        2
Co      12.60000000       5.40000000       3.60000000      58.93319400      216        1
Co      10.80000000       3.60000000       7.20000000      58.93319400      217        1
Co      10.80000000       5.40000000       9.00000000      58.93319400      218        1
Co      12.60000000       3.60000000       9.00000000      58.93319400      219        1
Co      12.60000000       5.40000000       7.20000000      58.93319400      220        1
Ni      10.80000000       3.60000000      10.80000000      58.69340000      221        2
Ni      10.80000000       5.40000000      12.60000000      58.69340000      222        2
Mn      12.60000000       3.60000000      12.60000000      54.93804400      223        5
Co      12.60000000       5.40000000      10.80000000      58.93319400      224        1
Cr      10.80000000       7.20000000       0.00000000      51.99610000      225        3
Cr      10.80000000       9.00000000       1.80000000      51.99610000      226        3
Ni      12.60000000       7.20000000       1.80000000      58.69340000      227        2
Cr      12.60000000       9.00000000       0.00000000      51.99610000      228        3
Cr      10.80000000       7.20000000       3.60000000      51.99610000      229        3
Ni      10.80000000       9.00000000       5.40000000      58.69340000      230        2
Co      12.60000000       7.20000000       5.40000000      58.93319400      231        1
Cr      12.60000000       9.00000000       3.60000000      51.99610000      232        3
Co      10.80000000       7.20000000       7.20000000      58.93319400      233        1
Fe      10.80000000       9.00000000       9.00000000      55.84500000      234        4
Co      12.60000000       7.20000000       9.00000000      58.93319400      235        1
Co      12.60000000       9.00000000       7.20000000      58.93319400      236        1
Co      10.80000000       7.20000000      10.80000000      58.93319400      237        1
Ni      10.80000000       9.00000000      12.60000000      58.69340000      238        2
Co      12.60000000       7.20000000      12.60000000      58.93319400      239        1
Co      12.60000000       9.00000000      10.80000000      58.93319400      240        1
Cr      10.80000000      10.80000000       0.00000000      51.99610000      241        3
Ni      10.80000000      12.60000000       1.80000000      58.69340000      242        2
Ni      12.60000000      10.80000000       1.80000000      58.69340000      243        2
Cr      12.60000000      12.60000000       0.00000000      51.99610000      244        3
Mn      10.80000000      10.80000000       3.60000000      54.93804400      245        5
Fe      10.80000000      12.60000000       5.40000000      55.84500000      246        4
Cr      12.60000000      10.80000000       5.40000000      51.99610000      247        3
Mn      12.60000000      12.60000000       3.60000000      54.93804400      248        5
Mn      10.80000000      10.80000000       7.20000000      54.93804400      249        5
Mn      10.80000000      12.60000000       9.00000000      54.93804400      250        5
Ni      12.60000000      10.80000000       9.00000000      58.69340000      251        2
Mn      12.60000000      12.60000000       7.20000000      54.93804400      252        5
Mn      10.80000000      10.80000000      10.80000000      54.93804400      253        5
Mn      10.80000000      12.60000000      12.60000000      54.93804400      254        5
Cr      12.60000000      10.80000000      12.60000000      51.99610000      255        3
Mn      12.60000000      12.60000000      10.80000000      54.93804400      256        5
