256
Lattice="14.4 0.0 0.0 0.0 14.4 0.0 0.0 0.0 14.4" Properties=species:S:1:pos:R:3:masses:R:1:id:I:1:type:I:1 comment="(written by ASE)" energy=-1019.69011739263 pbc="T T T"
Co       0.00000000       0.00000000       0.00000000      58.93319400        1        1
Fe       0.00000000       1.80000000       1.80000000      55.84500000        2        4
Ni       1.80000000       0.00000000       1.80000000      58.69340000        3        2
Co       1.80000000       1.80000000       0.00000000      58.93319400        4        1
Ni       0.00000000       0.00000000       3.60000000      58.69340000        5        2
Co       0.00000000       1.80000000       5.40000000      58.93319400        6        1
Ni       1.80000000       0.00000000       5.40000000      58.69340000        7        2
Co       1.80000000       1.80000000       3.60000000      58.93319400        8        1
Co       0.00000000       0.00000000       7.20000000      58.93319400        9        1
Co       0.00000000       1.80000000       9.00000000      58.93319400       10        1
Cr       1.80000000       0.00000000       9.00000000      51.99610000       11        3
Ni       1.80000000       1.80000000       7.20000000      58.69340000       12        2
Ni       0.00000000       0.00000000      10.80000000      58.69340000       13        2
Fe       0.00000000       1.80000000      12.60000000      55.84500000       14        4
Ni       1.80000000       0.00000000      12.60000000      58.69340000       15        2
Co       1.80000000       1.80000000      10.80000000      58.93319400       16        1
Mn       0.00000000       3.60000000       0.00000000      54.93804400       17        5
Fe       0.00000000       5.40000000       1.80000000      55.84500000       18        4
Fe       1.80000000       3.60000000       1.80000000      55.84500000       19        4
Fe       1.80000000       5.40000000       0.00000000      55.84500000       20        4
Co       0.00000000       3.60000000       3.60000000      58.93319400       21        1
Cr       0.00000000       5.40000000       5.40000000      51.99610000       22        3
Ni       1.80000000       3.60000000       5.40000000      58.69340000       23        2
Ni       1.80000000       5.40000000       3.60000000      58.69340000       24        2
Ni       0.00000000       3.60000000       7.20000000      58.69340000       25        2
Fe       0.00000000       5.40000000       9.00000000      55.84500000       26        4
Co       1.80000000       3.60000000       9.00000000      58.93319400       27        1
Cr       1.80000000       5.40000000       7.20000000      51.99610000       28        3
Fe       0.00000000       3.60000000      10.80000000      55.84500000       29        4
Fe       0.00000000       5.40000000      12.60000000      55.84500000       30        4
Mn       1.80000000       3.60000000      12.60000000      54.93804400       31        5
Fe       1.80000000       5.40000000      10.80000000      55.84500000       32        4
Fe       0.00000000       7.20000000       0.00000000      55.84500000       33        4
Ni       0.00000000       9.00000000       1.80000000      58.69340000       34        2
Co       1.80000000       7.20000000       1.80000000      58.93319400       35        1
Cr       1.80000000       9.00000000       0.00000000      51.99610000       36        3
Ni       0.00000000       7.20000000       3.60000000      58.69340000       37        2
Ni       0.00000000       9.00000000       5.40000000      58.69340000       38        2
Cr       1.80000000       7.20000000       5.40000000      51.99610000       39        3
Co       1.80000000       9.00000000       3.60000000      58.93319400       40        1
Cr       0.00000000       7.20000000       7.20000000      51.99610000       41        3
Cr       0.00000000       9.00000000       9.00000000      51.99610000       42        3
Co       1.80000000       7.20000000       9.00000000      58.93319400       43        1
Cr       1.80000000       9.00000000       7.20000000      51.99610000       44        3
Fe       0.00000000       7.20000000      10.80000000      55.84500000       45        4
Co       0.00000000       9.00000000      12.60000000      58.93319400       46        1
Co       1.80000000       7.20000000      12.60000000      58.93319400       47        1
Ni       1.80000000       9.00000000      10.80000000      58.69340000       48        2
Cr       0.00000000      10.80000000       0.00000000      51.99610000       49        3
Cr       0.00000000      12.60000000       1.80000000      51.99610000       50        3
Cr       1.80000000      10.80000000       1.80000000      51.99610000       51        3
Cr       1.80000000      12.60000000       0.00000000      51.99610000       52        3
Cr       0.00000000      10.80000000       3.60000000      51.99610000       53        3
Ni       0.00000000      12.60000000       5.40000000      58.69340000       54        2
Ni       1.80000000      10.80000000       5.40000000      58.69340000       55        2
Co       1.80000000      12.60000000       3.60000000      58.93319400       56        1
Cr       0.00000000      10.80000000       7.20000000      51.99610000       57        3
Cr       0.00000000      12.60000000       9.00000000      51.99610000       58        3
Cr       1.80000000      10.80000000       9.00000000      51.99610000       59        3
Co       1.80000000      12.60000000       7.20000000      58.93319400       60        1
Cr       0.00000000      10.80000000      10.80000000      51.99610000       61        3
Cr       0.00000000      12.60000000      12.60000000      51.99610000       62        3
Ni       1.80000000      10.80000000      12.60000000      58.69340000       63        2
Cr       1.80000000      12.60000000      10.80000000      51.99610000       64        3
Ni       3.60000000       0.00000000       0.00000000      58.69340000       65        2
Co       3.60000000       1.80000000       1.80000000      58.93319400       66        1
Fe       5.40000000       0.00000000       1.80000000      55.84500000       67        4
Co       5.40000000       1.80000000       0.00000000      58.93319400       68        1
Co       3.60000000       0.00000000       3.60000000      58.93319400       69        1
Co       3.60000000       1.80000000       5.40000000      58.93319400       70        1
Mn       5.40000000       0.00000000       5.40000000      54.93804400       71        5
Fe       5.40000000       1.80000000       3.60000000      55.84500000       72        4
Co       3.60000000       0.00000000       7.20000000      58.93319400       73        1
Co       3.60000000       1.80000000       9.00000000      58.93319400       74        1
Fe       5.40000000       0.00000000       9.00000000      55.84500000       75        4
Fe       5.40000000       1.80000000       7.20000000      55.84500000       76        4
Ni       3.60000000       0.00000000      10.80000000      58.69340000       77        2
Ni       3.60000000       1.80000000      12.60000000      58.69340000       78        2
Co       5.40000000       0.00000000      12.60000000      58.93319400       79        1
Mn       5.40000000       1.80000000      10.80000000      54.93804400       80        5
Ni       3.60000000       3.60000000       0.00000000      58.69340000       81        2
Cr       3.60000000       5.40000000       1.80000000      51.99610000       82        3
Cr       5.40000000       3.60000000       1.80000000      51.99610000       83        3
Ni       5.40000000       5.40000000       0.00000000      58.69340000       84        2
Cr       3.60000000       3.60000000       3.60000000      51.99610000       85        3
Ni       3.60000000       5.40000000       5.40000000      58.69340000       86        2
Co       5.40000000       3.60000000       5.40000000      58.93319400       87        1
Cr       5.40000000       5.40000000       3.60000000      51.99610000       88        3
Cr       3.60000000       3.60000000       7.20000000      51.99610000       89        3
Ni       3.60000000       5.40000000       9.00000000      58.69340000       90        2
Fe       5.40000000       3.60000000       9.00000000      55.84500000       91        4
Co       5.40000000       5.40000000       7.20000000      58.93319400       92        1
Fe       3.60000000       3.60000000      10.80000000      55.84500000       93        4
Fe       3.60000000       5.40000000      12.60000000      55.84500000       94        4
Mn       5.40000000       3.60000000      12.60000000      54.93804400       95        5
Mn       5.40000000       5.40000000      10.80000000      54.93804400       96        5
Co       3.60000000       7.20000000       0.00000000      58.93319400       97        1
Ni       3.60000000       9.00000000       1.80000000      58.69340000       98        2
Cr       5.40000000       7.20000000       1.80000000      51.99610000       99        3
Co       5.40000000       9.00000000       0.00000000      58.93319400      100        1
Cr       3.60000000       7.20000000       3.60000000      51.99610000      101        3
Cr       3.60000000       9.00000000       5.40000000      51.99610000      102        3
Cr       5.40000000       7.20000000       5.40000000      51.99610000      103        3
Ni       5.40000000       9.00000000       3.60000000      58.69340000      104        2
Cr       3.60000000       7.20000000       7.20000000      51.99610000      105        3
Ni       3.60000000       9.00000000       9.00000000      58.69340000      106        2
Fe       5.40000000       7.20000000       9.00000000      55.84500000      107        4
Cr       5.40000000       9.00000000       7.20000000      51.99610000      108        3
Co       3.60000000       7.20000000      10.80000000      58.93319400      109        1
Co       3.60000000       9.00000000      12.60000000      58.93319400      110        1
Fe       5.40000000       7.20000000      12.60000000      55.84500000      111        4
Fe       5.40000000       9.00000000      10.80000000      55.84500000      112        4
Ni       3.60000000      10.80000000       0.00000000      58.69340000      113        2
Cr       3.60000000      12.60000000       1.80000000      51.99610000      114        3
Cr       5.40000000      10.80000000       1.80000000      51.99610000      115        3
Co       5.40000000      12.60000000       0.00000000      58.93319400      116        1
Ni       3.60000000      10.80000000       3.60000000      58.69340000      117        2
Fe       3.60000000      12.60000000       5.40000000      55.84500000      118        4
Ni       5.40000000      10.80000000       5.40000000      58.69340000      119        2
Co       5.40000000      12.60000000       3.60000000      58.93319400      120        1
Ni       3.60000000      10.80000000       7.20000000      58.69340000      121        2
Ni       3.60000000      12.60000000       9.00000000      58.69340000      122        2
Co       5.40000000      10.80000000       9.00000000      58.93319400      123        1
Fe       5.40000000      12.60000000       7.20000000      55.84500000      124        4
Cr       3.60000000      10.80000000      10.80000000      51.99610000      125        3
Ni       3.60000000      12.60000000      12.60000000      58.69340000      126        2
Fe       5.40000000      10.80000000      12.60000000      55.84500000      127        4
Co       5.40000000      12.60000000      10.80000000      58.93319400      128        1
Fe       7.20000000       0.00000000       0.00000000      55.84500000      129        4
Mn       7.20000000       1.80000000       1.80000000      54.93804400      130        5
Mn       9.00000000       0.00000000       1.80000000      54.93804400      131        5
Mn       9.00000000       1.80000000       0.00000000      54.93804400      132        5
Mn       7.20000000       0.00000000       3.60000000      54.93804400      133        5
Mn       7.20000000       1.80000000       5.40000000      54.93804400      134        5
Mn       9.00000000       0.00000000       5.40000000      54.93804400      135        5
Mn       9.00000000       1.80000000       3.60000000      54.93804400      136        5
Mn       7.20000000       0.00000000       7.20000000      54.93804400      137        5
Mn       7.20000000       1.80000000       9.00000000      54.93804400      138        5
Mn       9.00000000       0.00000000       9.00000000      54.93804400      139        5
Mn       9.00000000       1.80000000       7.20000000      54.93804400      140        5
Mn       7.20000000       0.00000000      10.80000000      54.93804400      141        5
Mn       7.20000000       1.80000000      12.60000000      54.93804400      142        5
Fe       9.00000000       0.00000000      12.60000000      55.84500000      143        4
Mn       9.00000000       1.80000000      10.80000000      54.93804400      144        5
Mn       7.20000000       3.60000000       0.00000000      54.93804400      145        5
Co       7.20000000       5.40000000       1.80000000      58.93319400      146        1
Mn       9.00000000       3.60000000       1.80000000      54.93804400      147        5
Mn       9.00000000       5.40000000       0.00000000      54.93804400      148        5
Ni       7.20000000       3.60000000       3.60000000      58.69340000      149        2
Cr       7.20000000       5.40000000       5.40000000      51.99610000      150        3
Co       9.00000000       3.60000000       5.40000000      58.93319400      151        1
Ni       9.00000000       5.40000000       3.60000000      58.69340000      152        2
Fe       7.20000000       3.60000000       7.20000000      55.84500000      153        4
Fe       7.20000000       5.40000000       9.00000000      55.84500000      154        4
Fe       9.00000000       3.60000000       9.00000000      55.84500000      155        4
Fe       9.00000000       5.40000000       7.20000000      55.84500000      156        4
Mn       7.20000000       3.60000000      10.80000000      54.93804400      157        5
Mn       7.20000000       5.40000000      12.60000000      54.93804400      158        5
Mn       9.00000000       3.60000000      12.60000000      54.93804400      159        5
Mn       9.00000000       5.40000000      10.80000000      54.93804400      160        5
Fe       7.20000000       7.20000000       0.00000000      55.84500000      161        4
Ni       7.20000000       9.00000000       1.80000000      58.69340000      162        2
Cr       9.00000000       7.20000000       1.80000000      51.99610000      163        3
Fe       9.00000000       9.00000000       0.00000000      55.84500000      164        4
Cr       7.20000000       7.20000000       3.60000000      51.99610000      165        3
Cr       7.20000000       9.00000000       5.40000000      51.99610000      166        3
Cr       9.00000000       7.20000000       5.40000000      51.99610000      167        3
Cr       9.00000000       9.00000000       3.60000000      51.99610000      168        3
Ni       7.20000000       7.20000000       7.20000000      58.69340000      169        2
Mn       7.20000000       9.00000000       9.00000000      54.93804400      170        5
Mn       9.00000000       7.20000000       9.00000000      54.93804400      171        5
Ni       9.00000000       9.00000000       7.20000000      58.69340000      172        2
Mn       7.20000000       7.20000000      10.80000000      54.93804400      173        5
Mn       7.20000000       9.00000000      12.60000000      54.93804400      174        5
Mn       9.00000000       7.20000000      12.60000000      54.93804400      175        5
Mn       9.00000000       9.00000000      10.80000000      54.93804400      176        5
Fe       7.20000000      10.80000000       0.00000000      55.84500000      177        4
Fe       7.20000000      12.60000000       1.80000000      55.84500000      178        4
Co       9.00000000      10.80000000       1.80000000      58.93319400      179        1
Fe       9.00000000      12.60000000       0.00000000      55.84500000      180        4
Cr       7.20000000      10.80000000       3.60000000      51.99610000      181        3
Fe       7.20000000      12.60000000       5.40000000      55.84500000      182        4
Co       9.00000000      10.80000000       5.40000000      58.93319400      183        1
Mn       9.00000000      12.60000000       3.60000000      54.93804400      184        5
Co       7.20000000      10.80000000       7.20000000      58.93319400      185        1
Fe       7.20000000      12.60000000       9.00000000      55.84500000      186        4
Mn       9.00000000      10.80000000       9.00000000      54.93804400      187        5
Fe       9.00000000      12.60000000       7.20000000      55.84500000      188        4
Fe       7.20000000      10.80000000      10.80000000      55.84500000      189        4
Mn       7.20000000      12.60000000      12.60000000      54.93804400      190        5
Fe       9.00000000      10.80000000      12.60000000      55.84500000      191        4
Mn       9.00000000      12.60000000      10.80000000      54.93804400      192        5
Fe      10.80000000       0.00000000       0.00000000      55.84500000      193        4
Mn      10.80000000       1.80000000       1.80000000      54.93804400      194        5
Mn      12.60000000       0.00000000       1.80000000      54.93804400      195        5
Mn      12.60000000       1.80000000       0.00000000      54.93804400      196        5
Mn      10.80000000       0.00000000       3.60000000      54.93804400      197        5
Mn      10.80000000       1.80000000       5.40000000      54.93804400      198        5
Mn      12.60000000       0.00000000       5.40000000      54.93804400      199        5
Mn      12.60000000       1.80000000       3.60000000      54.93804400      200        5
Mn      10.80000000       0.00000000       7.20000000      54.93804400      201        5
Co      10.80000000       1.80000000       9.00000000      58.93319400      202        1
Fe      12.60000000       0.00000000       9.00000000      55.84500000      203        4
Fe      12.60000000       1.80000000       7.20000000      55.84500000      204        4
Fe      10.80000000       0.00000000      10.80000000      55.84500000      205        4
Mn      10.80000000       1.80000000      12.60000000      54.93804400      206        5
Co      12.60000000       0.00000000      12.60000000      58.93319400      207        1
Fe      12.60000000       1.80000000      10.80000000      55.84500000      208        4
Mn      10.80000000       3.60000000       0.00000000      54.93804400      209        5
Mn      10.80000000       5.40000000       1.80000000      54.93804400      210        5
Mn      12.60000000       3.60000000       1.80000000      54.93804400      211        5
Mn      12.60000000       5.40000000       0.00000000      54.93804400      212        5
Mn      10.80000000       3.60000000       3.60000000      54.93804400      213        5
Co      10.80000000       5.40000000       5.40000000      58.93319400      214        1
Fe      12.60000000       3.60000000       5.40000000      55.84500000      215        4
Fe      12.60000000       5.40000000       3.60000000      55.84500000      216        4
Fe      10.80000000       3.60000000       7.20000000      55.84500000      217        4
Mn      10.80000000       5.40000000       9.00000000      54.93804400      218        5
Co      12.60000000       3.60000000       9.00000000      58.93319400      219        1
Ni      12.60000000       5.40000000       7.20000000      58.69340000      220        2
Fe      10.80000000       3.60000000      10.80000000      55.84500000      221        4
Mn      10.80000000       5.40000000      12.60000000      54.93804400      222        5
Mn      12.60000000       3.60000000      12.60000000      54.93804400      223        5
Mn      12.60000000       5.40000000      10.80000000      54.93804400      224        5
Mn      10.80000000       7.20000000       0.00000000      54.93804400      225        5
Ni      10.80000000       9.00000000       1.80000000      58.69340000      226        2
Co      12.60000000       7.20000000       1.80000000      58.93319400      227        1
Mn      12.60000000       9.00000000       0.00000000      54.93804400      228        5
Cr      10.80000000       7.20000000       3.60000000      51.99610000      229        3
Cr      10.80000000       9.00000000       5.40000000      51.99610000      230        3
Ni      12.60000000       7.20000000       5.40000000      58.69340000      231        2
Cr      12.60000000       9.00000000       3.60000000      51.99610000      232        3
Co      10.80000000       7.20000000       7.20000000      58.93319400      233        1
Co      10.80000000       9.00000000       9.00000000      58.93319400      234        1
Fe      12.60000000       7.20000000       9.00000000      55.84500000      235        4
Cr      12.60000000       9.00000000       7.20000000      51.99610000      236        3
Mn      10.80000000       7.20000000      10.80000000      54.93804400      237        5
Mn      10.80000000       9.00000000      12.60000000      54.93804400      238        5
Mn      12.60000000       7.20000000      12.60000000      54.93804400      239        5
Fe      12.60000000       9.00000000      10.80000000      55.84500000      240        4
Fe      10.80000000      10.80000000       0.00000000      55.84500000      241        4
Co      10.80000000      12.60000000       1.80000000      58.93319400      242        1
Cr      12.60000000      10.80000000       1.80000000      51.99610000      243        3
Ni      12.60000000      12.60000000       0.00000000      58.69340000      244        2
Ni      10.80000000      10.80000000       3.60000000      58.69340000      245        2
Mn      10.80000000      12.60000000       5.40000000      54.93804400      246        5
Cr      12.60000000      10.80000000       5.40000000      51.99610000      247        3
Cr      12.60000000      12.60000000       3.60000000      51.99610000      248        3
Ni      10.80000000      10.80000000       7.20000000      58.69340000      249        2
Co      10.80000000      12.60000000       9.00000000      58.93319400      250        1
Ni      12.60000000      10.80000000       9.00000000      58.69340000      251        2
Ni      12.60000000      12.60000000       7.20000000      58.69340000      252        2
Fe      10.80000000      10.80000000      10.80000000      55.84500000      253        4
Co      10.80000000      12.60000000      12.60000000      58.93319400      254        1
Co      12.60000000      10.80000000      12.60000000      58.93319400      255        1
Ni      12.60000000      12.60000000      10.80000000      58.69340000      256        2
