256
Lattice="14.4 0.0 0.0 0.0 14.4 0.0 0.0 0.0 14.4" Properties=species:S:1:pos:R:3:masses:R:1:id:I:1:type:I:1 comment="(written by ASE)" energy=-1025.61910043028 pbc="T T T"
Co       0.00000000       0.00000000       0.00000000      58.93319400        1        1
Fe       0.00000000       1.80000000       1.80000000      55.84500000        2        4
Cr       1.80000000       0.00000000       1.80000000      51.99610000        3        3
Ni       1.80000000       1.80000000       0.00000000      58.69340000        4        2
Ni       0.00000000       0.00000000       3.60000000      58.69340000        5        2
Fe       0.00000000       1.80000000       5.40000000      55.84500000        6        4
Co       1.80000000       0.00000000       5.40000000      58.93319400        7        1
Fe       1.80000000       1.80000000       3.60000000      55.84500000        8        4
Co       0.00000000       0.00000000       7.20000000      58.93319400        9        1
Mn       0.00000000       1.80000000       9.00000000      54.93804400       10        5
Mn       1.80000000       0.00000000       9.00000000      54.93804400       11        5
Ni       1.80000000       1.80000000       7.20000000      58.69340000       12        2
Ni       0.00000000       0.00000000      10.80000000      58.69340000       13        2
Mn       0.00000000       1.80000000      12.60000000      54.93804400       14        5
Mn       1.80000000       0.00000000      12.60000000      54.93804400       15        5
Co       1.80000000       1.80000000      10.80000000      58.93319400       16        1
Co       0.00000000       3.60000000       0.00000000      58.93319400       17        1
Cr       0.00000000       5.40000000       1.80000000      51.99610000       18        3
Cr       1.80000000       3.60000000       1.80000000      51.99610000       19        3
Cr       1.80000000       5.40000000       0.00000000      51.99610000       20        3
Ni       0.00000000       3.60000000       3.60000000      58.69340000       21        2
Fe       0.00000000       5.40000000       5.40000000      55.84500000       22        4
Fe       1.80000000       3.60000000       5.40000000      55.84500000       23        4
Fe       1.80000000       5.40000000       3.60000000      55.84500000       24        4
Ni       0.00000000       3.60000000       7.20000000      58.69340000       25        2
Mn       0.00000000       5.40000000       9.00000000      54.93804400       26        5
Mn       1.80000000       3.60000000       9.00000000      54.93804400       27        5
Fe       1.80000000       5.40000000       7.20000000      55.84500000       28        4
Co       0.00000000       3.60000000      10.80000000      58.93319400       29        1
Ni       0.00000000       5.40000000      12.60000000      58.69340000       30        2
Co       1.80000000       3.60000000      12.60000000      58.93319400       31        1
Mn       1.80000000       5.40000000      10.80000000      54.93804400       32        5
Co       0.00000000       7.20000000       0.00000000      58.93319400       33        1
Cr       0.00000000       9.00000000       1.80000000      51.99610000       34        3
Cr       1.80000000       7.20000000       1.80000000      51.99610000       35        3
Cr       1.80000000       9.00000000       0.00000000      51.99610000       36        3
Cr       0.00000000       7.20000000       3.60000000      51.99610000       37        3
Cr       0.00000000       9.00000000       5.40000000      51.99610000       38        3
Ni       1.80000000       7.20000000       5.40000000      58.69340000       39        2
Cr       1.80000000       9.00000000       3.60000000      51.99610000       40        3
Fe       0.00000000       7.20000000       7.20000000      55.84500000       41        4
Ni       0.00000000       9.00000000       9.00000000      58.69340000       42        2
Co       1.80000000       7.20000000       9.00000000      58.93319400       43        1
Mn       1.80000000       9.00000000       7.20000000      54.93804400       44        5
Mn       0.00000000       7.20000000      10.80000000      54.93804400       45        5
Ni       0.00000000       9.00000000      12.60000000      58.69340000       46        2
Mn       1.80000000       7.20000000      12.60000000      54.93804400       47        5
Co       1.80000000       9.00000000      10.80000000      58.93319400       48        1
Co       0.00000000      10.80000000       0.00000000      58.93319400       49        1
Cr       0.00000000      12.60000000       1.80000000      51.99610000       50        3
Cr       1.80000000      10.80000000       1.80000000      51.99610000       51        3
Cr       1.80000000      12.60000000       0.00000000      51.99610000       52        3
Cr       0.00000000      10.80000000       3.60000000      51.99610000       53        3
Mn       0.00000000      12.60000000       5.40000000      54.93804400       54        5
Co       1.80000000      10.80000000       5.40000000      58.93319400       55        1
Cr       1.80000000      12.60000000       3.60000000      51.99610000       56        3
Co       0.00000000      10.80000000       7.20000000      58.93319400       57        1
Ni       0.00000000      12.60000000       9.00000000      58.69340000       58        2
Mn       1.80000000      10.80000000       9.00000000      54.93804400       59        5
Mn       1.80000000      12.60000000       7.20000000      54.93804400       60        5
Co       0.00000000      10.80000000      10.80000000      58.93319400       61        1
Cr       0.00000000      12.60000000      12.60000000      51.99610000       62        3
Cr       1.80000000      10.80000000      12.60000000      51.99610000       63        3
Co       1.80000000      12.60000000      10.80000000      58.93319400       64        1
Co       3.60000000       0.00000000       0.00000000      58.93319400       65        1
Fe       3.60000000       1.80000000       1.80000000      55.84500000       66        4
Cr       5.40000000       0.00000000       1.80000000      51.99610000       67        3
Ni       5.40000000       1.80000000       0.00000000      58.69340000       68        2
Fe       3.60000000       0.00000000       3.60000000      55.84500000       69        4
Fe       3.60000000       1.80000000       5.40000000      55.84500000       70        4
Ni       5.40000000       0.00000000       5.40000000      58.69340000       71        2
Fe       5.40000000       1.80000000       3.60000000      55.84500000       72        4
Mn       3.60000000       0.00000000       7.20000000      54.93804400       73        5
Ni       3.60000000       1.80000000       9.00000000      58.69340000       74        2
Mn       5.40000000       0.00000000       9.00000000      54.93804400       75        5
Co       5.40000000       1.80000000       7.20000000      58.93319400       76        1
Mn       3.60000000       0.00000000      10.80000000      54.93804400       77        5
Ni       3.60000000       1.80000000      12.60000000      58.69340000       78        2
Mn       5.40000000       0.00000000      12.60000000      54.93804400       79        5
Fe       5.40000000       1.80000000      10.80000000      55.84500000       80        4
Cr       3.60000000       3.60000000       0.00000000      51.99610000       81        3
Cr       3.60000000       5.40000000       1.80000000      51.99610000       82        3
Co       5.40000000       3.60000000       1.80000000      58.93319400       83        1
Cr       5.40000000       5.40000000       0.00000000      51.99610000       84        3
Fe       3.60000000       3.60000000       3.60000000      55.84500000       85        4
Fe       3.60000000       5.40000000       5.40000000      55.84500000       86        4
Fe       5.40000000       3.60000000       5.40000000      55.84500000       87        4
Fe       5.40000000       5.40000000       3.60000000      55.84500000       88        4
Fe       3.60000000       3.60000000       7.20000000      55.84500000       89        4
Ni       3.60000000       5.40000000       9.00000000      58.69340000       90        2
Fe       5.40000000       3.60000000       9.00000000      55.84500000       91        4
Fe       5.40000000       5.40000000       7.20000000      55.84500000       92        4
Fe       3.60000000       3.60000000      10.80000000      55.84500000       93        4
Ni       3.60000000       5.40000000      12.60000000      58.69340000       94        2
Fe       5.40000000       3.60000000      12.60000000      55.84500000       95        4
Fe       5.40000000       5.40000000      10.80000000      55.84500000       96        4
Cr       3.60000000       7.20000000       0.00000000      51.99610000       97        3
Cr       3.60000000       9.00000000       1.80000000      51.99610000       98        3
Cr       5.40000000       7.20000000       1.80000000      51.99610000       99        3
Cr       5.40000000       9.00000000       0.00000000      51.99610000      100        3
Cr       3.60000000       7.20000000       3.60000000      51.99610000      101        3
Ni       3.60000000       9.00000000       5.40000000      58.69340000      102        2
Fe       5.40000000       7.20000000       5.40000000      55.84500000      103        4
Fe       5.40000000       9.00000000       3.60000000      55.84500000      104        4
Fe       3.60000000       7.20000000       7.20000000      55.84500000      105        4
Ni       3.60000000       9.00000000       9.00000000      58.69340000      106        2
Fe       5.40000000       7.20000000       9.00000000      55.84500000      107        4
Fe       5.40000000       9.00000000       7.20000000      55.84500000      108        4
Fe       3.60000000       7.20000000      10.80000000      55.84500000      109        4
Cr       3.60000000       9.00000000      12.60000000      51.99610000      110        3
Co       5.40000000       7.20000000      12.60000000      58.93319400      111        1
Cr       5.40000000       9.00000000      10.80000000      51.99610000      112        3
Cr       3.60000000      10.80000000       0.00000000      51.99610000      113        3
Cr       3.60000000      12.60000000       1.80000000      51.99610000      114        3
Cr       5.40000000      10.80000000       1.80000000      51.99610000      115        3
Cr       5.40000000      12.60000000       0.00000000      51.99610000      116        3
Cr       3.60000000      10.80000000       3.60000000      51.99610000      117        3
Mn       3.60000000      12.60000000       5.40000000      54.93804400      118        5
Fe       5.40000000      10.80000000       5.40000000      55.84500000      119        4
Co       5.40000000      12.60000000       3.60000000      58.93319400      120        1
Co       3.60000000      10.80000000       7.20000000      58.93319400      121        1
Ni       3.60000000      12.60000000       9.00000000      58.69340000      122        2
Fe       5.40000000      10.80000000       9.00000000      55.84500000      123        4
Co       5.40000000      12.60000000       7.20000000      58.93319400      124        1
Mn       3.60000000      10.80000000      10.80000000      54.93804400      125        5
Ni       3.60000000      12.60000000      12.60000000      58.69340000      126        2
Cr       5.40000000      10.80000000      12.60000000      51.99610000      127        3
Mn       5.40000000      12.60000000      10.80000000      54.93804400      128        5
Co       7.20000000       0.00000000       0.00000000      58.93319400      129        1
Mn       7.20000000       1.80000000       1.80000000      54.93804400      130        5
Mn       9.00000000       0.00000000       1.80000000      54.93804400      131        5
Ni       9.00000000       1.80000000       0.00000000      58.69340000      132        2
Mn       7.20000000       0.00000000       3.60000000      54.93804400      133        5
Ni       7.20000000       1.80000000       5.40000000      58.69340000      134        2
Co       9.00000000       0.00000000       5.40000000      58.93319400      135        1
Co       9.00000000       1.80000000       3.60000000      58.93319400      136        1
Mn       7.20000000       0.00000000       7.20000000      54.93804400      137        5
Ni       7.20000000       1.80000000       9.00000000      58.69340000      138        2
Mn       9.00000000       0.00000000       9.00000000      54.93804400      139        5
Co       9.00000000       1.80000000       7.20000000      58.93319400      140        1
Mn       7.20000000       0.00000000      10.80000000      54.93804400      141        5
Fe       7.20000000       1.80000000      12.60000000      55.84500000      142        4
Mn       9.00000000       0.00000000      12.60000000      54.93804400      143        5
Mn       9.00000000       1.80000000      10.80000000      54.93804400      144        5
Co       7.20000000       3.60000000       0.00000000      58.93319400      145        1
Cr       7.20000000       5.40000000       1.80000000      51.99610000      146        3
Mn       9.00000000       3.60000000       1.80000000      54.93804400      147        5
Mn       9.00000000       5.40000000       0.00000000      54.93804400      148        5
Cr       7.20000000       3.60000000       3.60000000      51.99610000      149        3
Ni       7.20000000       5.40000000       5.40000000      58.69340000      150        2
Cr       9.00000000       3.60000000       5.40000000      51.99610000      151        3
Co       9.00000000       5.40000000       3.60000000      58.93319400      152        1
Mn       7.20000000       3.60000000       7.20000000      54.93804400      153        5
Fe       7.20000000       5.40000000       9.00000000      55.84500000      154        4
Ni       9.00000000       3.60000000       9.00000000      58.69340000      155        2
Co       9.00000000       5.40000000       7.20000000      58.93319400      156        1
Fe       7.20000000       3.60000000      10.80000000      55.84500000      157        4
Ni       7.20000000       5.40000000      12.60000000      58.69340000      158        2
Mn       9.00000000       3.60000000      12.60000000      54.93804400      159        5
Mn       9.00000000       5.40000000      10.80000000      54.93804400      160        5
Cr       7.20000000       7.20000000       0.00000000      51.99610000      161        3
Fe       7.20000000       9.00000000       1.80000000      55.84500000      162        4
Ni       9.00000000       7.20000000       1.80000000      58.69340000      163        2
Co       9.00000000       9.00000000       0.00000000      58.93319400      164        1
Fe       7.20000000       7.20000000       3.60000000      55.84500000      165        4
Ni       7.20000000       9.00000000       5.40000000      58.69340000      166        2
Fe       9.00000000       7.20000000       5.40000000      55.84500000      167        4
Fe       9.00000000       9.00000000       3.60000000      55.84500000      168        4
Fe       7.20000000       7.20000000       7.20000000      55.84500000      169        4
Mn       7.20000000       9.00000000       9.00000000      54.93804400      170        5
Ni       9.00000000       7.20000000       9.00000000      58.69340000      171        2
Fe       9.00000000       9.00000000       7.20000000      55.84500000      172        4
Fe       7.20000000       7.20000000      10.80000000      55.84500000      173        4
Cr       7.20000000       9.00000000      12.60000000      51.99610000      174        3
Co       9.00000000       7.20000000      12.60000000      58.93319400      175        1
Ni       9.00000000       9.00000000      10.80000000      58.69340000      176        2
Cr       7.20000000      10.80000000       0.00000000      51.99610000      177        3
Ni       7.20000000      12.60000000       1.80000000      58.69340000      178        2
Fe       9.00000000      10.80000000       1.80000000      55.84500000      179        4
Mn       9.00000000      12.60000000       0.00000000      54.93804400      180        5
Fe       7.20000000      10.80000000       3.60000000      55.84500000      181        4
Ni       7.20000000      12.60000000       5.40000000      58.69340000      182        2
Fe       9.00000000      10.80000000       5.40000000      55.84500000      183        4
Fe       9.00000000      12.60000000       3.60000000      55.84500000      184        4
Mn       7.20000000      10.80000000       7.20000000      54.93804400      185        5
Ni       7.20000000      12.60000000       9.00000000      58.69340000      186        2
Co       9.00000000      10.80000000       9.00000000      58.93319400      187        1
Mn       9.00000000      12.60000000       7.20000000      54.93804400      188        5
Co       7.20000000      10.80000000      10.80000000      58.93319400      189        1
Co       7.20000000      12.60000000      12.60000000      58.93319400      190        1
Mn       9.00000000      10.80000000      12.60000000      54.93804400      191        5
Mn       9.00000000      12.60000000      10.80000000      54.93804400      192        5
Co      10.80000000       0.00000000       0.00000000      58.93319400      193        1
Fe      10.80000000       1.80000000       1.80000000      55.84500000      194        4
Co      12.60000000       0.00000000       1.80000000      58.93319400      195        1
Ni      12.60000000       1.80000000       0.00000000      58.69340000      196        2
Ni      10.80000000       0.00000000       3.60000000      58.69340000      197        2
Cr      10.80000000       1.80000000       5.40000000      51.99610000      198        3
Co      12.60000000       0.00000000       5.40000000      58.93319400      199        1
Fe      12.60000000       1.80000000       3.60000000      55.84500000      200        4
Mn      10.80000000       0.00000000       7.20000000      54.93804400      201        5
Mn      10.80000000       1.80000000       9.00000000      54.93804400      202        5
Mn      12.60000000       0.00000000       9.00000000      54.93804400      203        5
Co      12.60000000       1.80000000       7.20000000      58.93319400      204        1
Mn      10.80000000       0.00000000      10.80000000      54.93804400      205        5
Mn      10.80000000       1.80000000      12.60000000      54.93804400      206        5
Mn      12.60000000       0.00000000      12.60000000      54.93804400      207        5
Co      12.60000000       1.80000000      10.80000000      58.93319400      208        1
Co      10.80000000       3.60000000       0.00000000      58.93319400      209        1
Mn      10.80000000       5.40000000       1.80000000      54.93804400      210        5
Fe      12.60000000       3.60000000       1.80000000      55.84500000      211        4
Mn      12.60000000       5.40000000       0.00000000      54.93804400      212        5
Ni      10.80000000       3.60000000       3.60000000      58.69340000      213        2
Cr      10.80000000       5.40000000       5.40000000      51.99610000      214        3
Fe      12.60000000       3.60000000       5.40000000      55.84500000      215        4
Co      12.60000000       5.40000000       3.60000000      58.93319400      216        1
Cr      10.80000000       3.60000000       7.20000000      51.99610000      217        3
Co      10.80000000       5.40000000       9.00000000      58.93319400      218        1
Ni      12.60000000       3.60000000       9.00000000      58.69340000      219        2
Fe      12.60000000       5.40000000       7.20000000      55.84500000      220        4
Co      10.80000000       3.60000000      10.80000000      58.93319400      221        1
Ni      10.80000000       5.40000000      12.60000000      58.69340000      222        2
Mn      12.60000000       3.60000000      12.60000000      54.93804400      223        5
Mn      12.60000000       5.40000000      10.80000000      54.93804400      224        5
Mn      10.80000000       7.20000000       0.00000000      54.93804400      225        5
Cr      10.80000000       9.00000000       1.80000000      51.99610000      226        3
Cr      12.60000000       7.20000000       1.80000000      51.99610000      227        3
Co      12.60000000       9.00000000       0.00000000      58.93319400      228        1
Co      10.80000000       7.20000000       3.60000000      58.93319400      229        1
Fe      10.80000000       9.00000000       5.40000000      55.84500000      230        4
Ni      12.60000000       7.20000000       5.40000000      58.69340000      231        2
Cr      12.60000000       9.00000000       3.60000000      51.99610000      232        3
Fe      10.80000000       7.20000000       7.20000000      55.84500000      233        4
Cr      10.80000000       9.00000000       9.00000000      51.99610000      234        3
Ni      12.60000000       7.20000000       9.00000000      58.69340000      235        2
Fe      12.60000000       9.00000000       7.20000000      55.84500000      236        4
Mn      10.80000000       7.20000000      10.80000000      54.93804400      237        5
Mn      10.80000000       9.00000000      12.60000000      54.93804400      238        5
Mn      12.60000000       7.20000000      12.60000000      54.93804400      239        5
Co      12.60000000       9.00000000      10.80000000      58.93319400      240        1
Ni      10.80000000      10.80000000       0.00000000      58.69340000      241        2
Ni      10.80000000      12.60000000       1.80000000      58.69340000      242        2
Mn      12.60000000      10.80000000       1.80000000      54.93804400      243        5
Mn      12.60000000      12.60000000       0.00000000      54.93804400      244        5
Ni      10.80000000      10.80000000       3.60000000      58.69340000      245        2
Mn      10.80000000      12.60000000       5.40000000      54.93804400      246        5
Co      12.60000000      10.80000000       5.40000000      58.93319400      247        1
Mn      12.60000000      12.60000000       3.60000000      54.93804400      248        5
Ni      10.80000000      10.80000000       7.20000000      58.69340000      249        2
Ni      10.80000000      12.60000000       9.00000000      58.69340000      250        2
Mn      12.60000000      10.80000000       9.00000000      54.93804400      251        5
Mn      12.60000000      12.60000000       7.20000000      54.93804400      252        5
Mn      10.80000000      10.80000000      10.80000000      54.93804400      253        5
Co      10.80000000      12.60000000      12.60000000      58.93319400      254        1
Mn      12.60000000      10.80000000      12.60000000      54.93804400      255        5
Co      12.60000000      12.60000000      10.80000000      58.93319400      256        1
