256
Lattice="14.4 0.0 0.0 0.0 14.4 0.0 0.0 0.0 14.4" Properties=species:S:1:pos:R:3:masses:R:1:id:I:1:type:I:1 comment="(written by ASE)" energy=-1023.82918427419 pbc="T T T"
Cr       0.00000000       0.00000000       0.00000000      51.99610000        1        3
Mn       0.00000000       1.80000000       1.80000000      54.93804400        2        5
Mn       1.80000000       0.00000000       1.80000000      54.93804400        3        5
Cr       1.80000000       1.80000000       0.00000000      51.99610000        4        3
Cr       0.00000000       0.00000000       3.60000000      51.99610000        5        3
Cr       0.00000000       1.80000000       5.40000000      51.99610000        6        3
Cr       1.80000000       0.00000000       5.40000000      51.99610000        7        3
Cr       1.80000000       1.80000000       3.60000000      51.99610000        8        3
Ni       0.00000000       0.00000000       7.20000000      58.69340000        9        2
Mn       0.00000000       1.80000000       9.00000000      54.93804400       10        5
Cr       1.80000000       0.00000000       9.00000000      51.99610000       11        3
Ni       1.80000000       1.80000000       7.20000000      58.69340000       12        2
Cr       0.00000000       0.00000000      10.80000000      51.99610000       13        3
Mn       0.00000000       1.80000000      12.60000000      54.93804400       14        5
Mn       1.80000000       0.00000000      12.60000000      54.93804400       15        5
Mn       1.80000000       1.80000000      10.80000000      54.93804400       16        5
Cr       0.00000000       3.60000000       0.00000000      51.99610000       17        3
Cr       0.00000000       5.40000000       1.80000000      51.99610000       18        3
Mn       1.80000000       3.60000000       1.80000000      54.93804400       19        5
Cr       1.80000000       5.40000000       0.00000000      51.99610000       20        3
Cr       0.00000000       3.60000000       3.60000000      51.99610000       21        3
Fe       0.00000000       5.40000000       5.40000000      55.84500000       22        4
Ni       1.80000000       3.60000000       5.40000000      58.69340000       23        2
Cr       1.80000000       5.40000000       3.60000000      51.99610000       24        3
Ni       0.00000000       3.60000000       7.20000000      58.69340000       25        2
Co       0.00000000       5.40000000       9.00000000      58.93319400       26        1
Fe       1.80000000       3.60000000       9.00000000      55.84500000       27        4
Fe       1.80000000       5.40000000       7.20000000      55.84500000       28        4
Cr       0.00000000       3.60000000      10.80000000      51.99610000       29        3
Cr       0.00000000       5.40000000      12.60000000      51.99610000       30        3
Mn       1.80000000       3.60000000      12.60000000      54.93804400       31        5
Co       1.80000000       5.40000000      10.80000000      58.93319400       32        1
Cr       0.00000000       7.20000000       0.00000000      51.99610000       33        3
Cr       0.00000000       9.00000000       1.80000000      51.99610000       34        3
Mn       1.80000000       7.20000000       1.80000000      54.93804400       35        5
Mn       1.80000000       9.00000000       0.00000000      54.93804400       36        5
Mn       0.00000000       7.20000000       3.60000000      54.93804400       37        5
Mn       0.00000000       9.00000000       5.40000000      54.93804400       38        5
Cr       1.80000000       7.20000000       5.40000000      51.99610000       39        3
Mn       1.80000000       9.00000000       3.60000000      54.93804400       40        5
Co       0.00000000       7.20000000       7.20000000      58.93319400       41        1
Fe       0.00000000       9.00000000       9.00000000      55.84500000       42        4
Co       1.80000000       7.20000000       9.00000000      58.93319400       43        1
Co       1.80000000       9.00000000       7.20000000      58.93319400       44        1
Co       0.00000000       7.20000000      10.80000000      58.93319400       45        1
Cr       0.00000000       9.00000000      12.60000000      51.99610000       46        3
Co       1.80000000       7.20000000      12.60000000      58.93319400       47        1
Ni       1.80000000       9.00000000      10.80000000      58.69340000       48        2
Mn       0.00000000      10.80000000       0.00000000      54.93804400       49        5
Mn       0.00000000      12.60000000       1.80000000      54.93804400       50        5
Mn       1.80000000      10.80000000       1.80000000      54.93804400       51        5
Mn       1.80000000      12.60000000       0.00000000      54.93804400       52        5
Cr       0.00000000      10.80000000       3.60000000      51.99610000       53        3
Mn       0.00000000      12.60000000       5.40000000      54.93804400       54        5
Cr       1.80000000      10.80000000       5.40000000      51.99610000       55        3
Mn       1.80000000      12.60000000       3.60000000      54.93804400       56        5
Mn       0.00000000      10.80000000       7.20000000      54.93804400       57        5
Co       0.00000000      12.60000000       9.00000000      58.93319400       58        1
Co       1.80000000      10.80000000       9.00000000      58.93319400       59        1
Ni       1.80000000      12.60000000       7.20000000      58.69340000       60        2
Fe       0.00000000      10.80000000      10.80000000      55.84500000       61        4
Mn       0.00000000      12.60000000      12.60000000      54.93804400       62        5
Fe       1.80000000      10.80000000      12.60000000      55.84500000       63        4
Mn       1.80000000      12.60000000      10.80000000      54.93804400       64        5
Mn       3.60000000       0.00000000       0.00000000      54.93804400       65        5
Cr       3.60000000       1.80000000       1.80000000      51.99610000       66        3
Ni       5.40000000       0.00000000       1.80000000      58.69340000       67        2
Mn       5.40000000       1.80000000       0.00000000      54.93804400       68        5
Co       3.60000000       0.00000000       3.60000000      58.93319400       69        1
Co       3.60000000       1.80000000       5.40000000      58.93319400       70        1
Co       5.40000000       0.00000000       5.40000000      58.93319400       71        1
Co       5.40000000       1.80000000       3.60000000      58.93319400       72        1
Co       3.60000000       0.00000000       7.20000000      58.93319400       73        1
Ni       3.60000000       1.80000000       9.00000000      58.69340000       74        2
Co       5.40000000       0.00000000       9.00000000      58.93319400       75        1
Co       5.40000000       1.80000000       7.20000000      58.93319400       76        1
Mn       3.60000000       0.00000000      10.80000000      54.93804400       77        5
Mn       3.60000000       1.80000000      12.60000000      54.93804400       78        5
Mn       5.40000000       0.00000000      12.60000000      54.93804400       79        5
Cr       5.40000000       1.80000000      10.80000000      51.99610000       80        3
Cr       3.60000000       3.60000000       0.00000000      51.99610000       81        3
Cr       3.60000000       5.40000000       1.80000000      51.99610000       82        3
Cr       5.40000000       3.60000000       1.80000000      51.99610000       83        3
Mn       5.40000000       5.40000000       0.00000000      54.93804400       84        5
Cr       3.60000000       3.60000000       3.60000000      51.99610000       85        3
Ni       3.60000000       5.40000000       5.40000000      58.69340000       86        2
Ni       5.40000000       3.60000000       5.40000000      58.69340000       87        2
Ni       5.40000000       5.40000000       3.60000000      58.69340000       88        2
Fe       3.60000000       3.60000000       7.20000000      55.84500000       89        4
Ni       3.60000000       5.40000000       9.00000000      58.69340000       90        2
Ni       5.40000000       3.60000000       9.00000000      58.69340000       91        2
Fe       5.40000000       5.40000000       7.20000000      55.84500000       92        4
Fe       3.60000000       3.60000000      10.80000000      55.84500000       93        4
Co       3.60000000       5.40000000      12.60000000      58.93319400       94        1
Ni       5.40000000       3.60000000      12.60000000      58.69340000       95        2
Ni       5.40000000       5.40000000      10.80000000      58.69340000       96        2
Mn       3.60000000       7.20000000       0.00000000      54.93804400       97        5
Fe       3.60000000       9.00000000       1.80000000      55.84500000       98        4
Fe       5.40000000       7.20000000       1.80000000      55.84500000       99        4
Fe       5.40000000       9.00000000       0.00000000      55.84500000      100        4
Mn       3.60000000       7.20000000       3.60000000      54.93804400      101        5
Co       3.60000000       9.00000000       5.40000000      58.93319400      102        1
Fe       5.40000000       7.20000000       5.40000000      55.84500000      103        4
Co       5.40000000       9.00000000       3.60000000      58.93319400      104        1
Co       3.60000000       7.20000000       7.20000000      58.93319400      105        1
Co       3.60000000       9.00000000       9.00000000      58.93319400      106        1
Co       5.40000000       7.20000000       9.00000000      58.93319400      107        1
Co       5.40000000       9.00000000       7.20000000      58.93319400      108        1
Co       3.60000000       7.20000000      10.80000000      58.93319400      109        1
Fe       3.60000000       9.00000000      12.60000000      55.84500000      110        4
Fe       5.40000000       7.20000000      12.60000000      55.84500000      111        4
Co       5.40000000       9.00000000      10.80000000      58.93319400      112        1
Ni       3.60000000      10.80000000       0.00000000      58.69340000      113        2
Fe       3.60000000      12.60000000       1.80000000      55.84500000      114        4
Ni       5.40000000      10.80000000       1.80000000      58.69340000      115        2
Fe       5.40000000      12.60000000       0.00000000      55.84500000      116        4
Fe       3.60000000      10.80000000       3.60000000      55.84500000      117        4
Co       3.60000000      12.60000000       5.40000000      58.93319400      118        1
Co       5.40000000      10.80000000       5.40000000      58.93319400      119        1
Co       5.40000000      12.60000000       3.60000000      58.93319400      120        1
Co       3.60000000      10.80000000       7.20000000      58.93319400      121        1
Co       3.60000000      12.60000000       9.00000000      58.93319400      122        1
Co       5.40000000      10.80000000       9.00000000      58.93319400      123        1
Co       5.40000000      12.60000000       7.20000000      58.93319400      124        1
Ni       3.60000000      10.80000000      10.80000000      58.69340000      125        2
Fe       3.60000000      12.60000000      12.60000000      55.84500000      126        4
Ni       5.40000000      10.80000000      12.60000000      58.69340000      127        2
Cr       5.40000000      12.60000000      10.80000000      51.99610000      128        3
Fe       7.20000000       0.00000000       0.00000000      55.84500000      129        4
Mn       7.20000000       1.80000000       1.80000000      54.93804400      130        5
Mn       9.00000000       0.00000000       1.80000000      54.93804400      131        5
Mn       9.00000000       1.80000000       0.00000000      54.93804400      132        5
Fe       7.20000000       0.00000000       3.60000000      55.84500000      133        4
Co       7.20000000       1.80000000       5.40000000      58.93319400      134        1
Cr       9.00000000       0.00000000       5.40000000      51.99610000      135        3
Fe       9.00000000       1.80000000       3.60000000      55.84500000      136        4
Co       7.20000000       0.00000000       7.20000000      58.93319400      137        1
Co       7.20000000       1.80000000       9.00000000      58.93319400      138        1
Co       9.00000000       0.00000000       9.00000000      58.93319400      139        1
Cr       9.00000000       1.80000000       7.20000000      51.99610000      140        3
Co       7.20000000       0.00000000      10.80000000      58.93319400      141        1
Fe       7.20000000       1.80000000      12.60000000      55.84500000      142        4
Fe       9.00000000       0.00000000      12.60000000      55.84500000      143        4
Mn       9.00000000       1.80000000      10.80000000      54.93804400      144        5
Fe       7.20000000       3.60000000       0.00000000      55.84500000      145        4
Mn       7.20000000       5.40000000       1.80000000      54.93804400      146        5
Mn       9.00000000       3.60000000       1.80000000      54.93804400      147        5
Cr       9.00000000       5.40000000       0.00000000      51.99610000      148        3
Co       7.20000000       3.60000000       3.60000000      58.93319400      149        1
Co       7.20000000       5.40000000       5.40000000      58.93319400      150        1
Co       9.00000000       3.60000000       5.40000000      58.93319400      151        1
Ni       9.00000000       5.40000000       3.60000000      58.69340000      152        2
Ni       7.20000000       3.60000000       7.20000000      58.69340000      153        2
Fe       7.20000000       5.40000000       9.00000000      55.84500000      154        4
Ni       9.00000000       3.60000000       9.00000000      58.69340000      155        2
Ni       9.00000000       5.40000000       7.20000000      58.69340000      156        2
Fe       7.20000000       3.60000000      10.80000000      55.84500000      157        4
Ni       7.20000000       5.40000000      12.60000000      58.69340000      158        2
Mn       9.00000000       3.60000000      12.60000000      54.93804400      159        5
Cr       9.00000000       5.40000000      10.80000000      51.99610000      160        3
Mn       7.20000000       7.20000000       0.00000000      54.93804400      161        5
Fe       7.20000000       9.00000000       1.80000000      55.84500000      162        4
Cr       9.00000000       7.20000000       1.80000000      51.99610000      163        3
Fe       9.00000000       9.00000000       0.00000000      55.84500000      164        4
Co       7.20000000       7.20000000       3.60000000      58.93319400      165        1
Fe       7.20000000       9.00000000       5.40000000      55.84500000      166        4
Co       9.00000000       7.20000000       5.40000000      58.93319400      167        1
Co       9.00000000       9.00000000       3.60000000      58.93319400      168        1
Fe       7.20000000       7.20000000       7.20000000      55.84500000      169        4
Fe       7.20000000       9.00000000       9.00000000      55.84500000      170        4
Fe       9.00000000       7.20000000       9.00000000      55.84500000      171        4
Mn       9.00000000       9.00000000       7.20000000      54.93804400      172        5
Fe       7.20000000       7.20000000      10.80000000      55.84500000      173        4
Ni       7.20000000       9.00000000      12.60000000      58.69340000      174        2
Mn       9.00000000       7.20000000      12.60000000      54.93804400      175        5
Ni       9.00000000       9.00000000      10.80000000      58.69340000      176        2
Fe       7.20000000      10.80000000       0.00000000      55.84500000      177        4
Mn       7.20000000      12.60000000       1.80000000      54.93804400      178        5
Ni       9.00000000      10.80000000       1.80000000      58.69340000      179        2
Fe       9.00000000      12.60000000       0.00000000      55.84500000      180        4
Ni       7.20000000      10.80000000       3.60000000      58.69340000      181        2
Co       7.20000000      12.60000000       5.40000000      58.93319400      182        1
Ni       9.00000000      10.80000000       5.40000000      58.69340000      183        2
Cr       9.00000000      12.60000000       3.60000000      51.99610000      184        3
Co       7.20000000      10.80000000       7.20000000      58.93319400      185        1
Co       7.20000000      12.60000000       9.00000000      58.93319400      186        1
Ni       9.00000000      10.80000000       9.00000000      58.69340000      187        2
Co       9.00000000      12.60000000       7.20000000      58.93319400      188        1
Fe       7.20000000      10.80000000      10.80000000      55.84500000      189        4
Ni       7.20000000      12.60000000      12.60000000      58.69340000      190        2
Ni       9.00000000      10.80000000      12.60000000      58.69340000      191        2
Fe       9.00000000      12.60000000      10.80000000      55.84500000      192        4
Mn      10.80000000       0.00000000       0.00000000      54.93804400      193        5
Mn      10.80000000       1.80000000       1.80000000      54.93804400      194        5
Cr      12.60000000       0.00000000       1.80000000      51.99610000      195        3
Cr      12.60000000       1.80000000       0.00000000      51.99610000      196        3
Cr      10.80000000       0.00000000       3.60000000      51.99610000      197        3
Mn      10.80000000       1.80000000       5.40000000      54.93804400      198        5
Mn      12.60000000       0.00000000       5.40000000      54.93804400      199        5
Mn      12.60000000       1.80000000       3.60000000      54.93804400      200        5
Ni      10.80000000       0.00000000       7.20000000      58.69340000      201        2
Fe      10.80000000       1.80000000       9.00000000      55.84500000      202        4
Ni      12.60000000       0.00000000       9.00000000      58.69340000      203        2
Fe      12.60000000       1.80000000       7.20000000      55.84500000      204        4
Ni      10.80000000       0.00000000      10.80000000      58.69340000      205        2
Cr      10.80000000       1.80000000      12.60000000      51.99610000      206        3
Cr      12.60000000       0.00000000      12.60000000      51.99610000      207        3
Mn      12.60000000       1.80000000      10.80000000      54.93804400      208        5
Cr      10.80000000       3.60000000       0.00000000      51.99610000      209        3
Mn      10.80000000       5.40000000       1.80000000      54.93804400      210        5
Mn      12.60000000       3.60000000       1.80000000      54.93804400      211        5
Mn      12.60000000       5.40000000       0.00000000      54.93804400      212        5
Fe      10.80000000       3.60000000       3.60000000      55.84500000      213        4
Fe      10.80000000       5.40000000       5.40000000      55.84500000      214        4
Ni      12.60000000       3.60000000       5.40000000      58.69340000      215        2
Mn      12.60000000       5.40000000       3.60000000      54.93804400      216        5
Ni      10.80000000       3.60000000       7.20000000      58.69340000      217        2
Ni      10.80000000       5.40000000       9.00000000      58.69340000      218        2
Fe      12.60000000       3.60000000       9.00000000      55.84500000      219        4
Fe      12.60000000       5.40000000       7.20000000      55.84500000      220        4
Mn      10.80000000       3.60000000      10.80000000      54.93804400      221        5
Mn      10.80000000       5.40000000      12.60000000      54.93804400      222        5
Mn      12.60000000       3.60000000      12.60000000      54.93804400      223        5
Ni      12.60000000       5.40000000      10.80000000      58.69340000      224        2
Cr      10.80000000       7.20000000       0.00000000      51.99610000      225        3
Mn      10.80000000       9.00000000       1.80000000      54.93804400      226        5
Mn      12.60000000       7.20000000       1.80000000      54.93804400      227        5
Mn      12.60000000       9.00000000       0.00000000      54.93804400      228        5
Co      10.80000000       7.20000000       3.60000000      58.93319400      229        1
Co      10.80000000       9.00000000       5.40000000      58.93319400      230        1
Fe      12.60000000       7.20000000       5.40000000      55.84500000      231        4
Cr      12.60000000       9.00000000       3.60000000      51.99610000      232        3
Fe      10.80000000       7.20000000       7.20000000      55.84500000      233        4
Fe      10.80000000       9.00000000       9.00000000      55.84500000      234        4
Ni      12.60000000       7.20000000       9.00000000      58.69340000      235        2
Fe      12.60000000       9.00000000       7.20000000      55.84500000      236        4
Cr      10.80000000       7.20000000      10.80000000      51.99610000      237        3
Ni      10.80000000       9.00000000      12.60000000      58.69340000      238        2
Cr      12.60000000       7.20000000      12.60000000      51.99610000      239        3
Ni      12.60000000       9.00000000      10.80000000      58.69340000      240        2
Ni      10.80000000      10.80000000       0.00000000      58.69340000      241        2
Mn      10.80000000      12.60000000       1.80000000      54.93804400      242        5
Cr      12.60000000      10.80000000       1.80000000      51.99610000      243        3
Cr      12.60000000      12.60000000       0.00000000      51.99610000      244        3
Cr      10.80000000      10.80000000       3.60000000      51.99610000      245        3
Mn      10.80000000      12.60000000       5.40000000      54.93804400      246        5
Mn      12.60000000      10.80000000       5.40000000      54.93804400      247        5
Mn      12.60000000      12.60000000       3.60000000      54.93804400      248        5
Fe      10.80000000      10.80000000       7.20000000      55.84500000      249        4
Fe      10.80000000      12.60000000       9.00000000      55.84500000      250        4
Ni      12.60000000      10.80000000       9.00000000      58.69340000      251        2
Fe      12.60000000      12.60000000       7.20000000      55.84500000      252        4
Fe      10.80000000      10.80000000      10.80000000      55.84500000      253        4
Ni      10.80000000      12.60000000      12.60000000      58.69340000      254        2
Fe      12.60000000      10.80000000      12.60000000      55.84500000      255        4
Ni      12.60000000      12.60000000      10.80000000      58.69340000      256        2
