256
Lattice="14.4 0.0 0.0 0.0 14.4 0.0 0.0 0.0 14.4" Properties=species:S:1:pos:R:3:masses:R:1:id:I:1:type:I:1 comment="(written by ASE)" energy=-1024.23089319475 pbc="T T T"
Fe       0.00000000       0.00000000       0.00000000      55.84500000        1        4
Fe       0.00000000       1.80000000       1.80000000      55.84500000        2        4
Cr       1.80000000       0.00000000       1.80000000      51.99610000        3        3
Co       1.80000000       1.80000000       0.00000000      58.93319400        4        1
Co       0.00000000       0.00000000       3.60000000      58.93319400        5        1
Fe       0.00000000       1.80000000       5.40000000      55.84500000        6        4
Cr       1.80000000       0.00000000       5.40000000      51.99610000        7        3
Fe       1.80000000       1.80000000       3.60000000      55.84500000        8        4
Co       0.00000000       0.00000000       7.20000000      58.93319400        9        1
Ni       0.00000000       1.80000000       9.00000000      58.69340000       10        2
Mn       1.80000000       0.00000000       9.00000000      54.93804400       11        5
Mn       1.80000000       1.80000000       7.20000000      54.93804400       12        5
Co       0.00000000       0.00000000      10.80000000      58.93319400       13        1
Fe       0.00000000       1.80000000      12.60000000      55.84500000       14        4
Mn       1.80000000       0.00000000      12.60000000      54.93804400       15        5
Mn       1.80000000       1.80000000      10.80000000      54.93804400       16        5
Mn       0.00000000       3.60000000       0.00000000      54.93804400       17        5
Fe       0.00000000       5.40000000       1.80000000      55.84500000       18        4
Cr       1.80000000       3.60000000       1.80000000      51.99610000       19        3
Ni       1.80000000       5.40000000       0.00000000      58.69340000       20        2
Cr       0.00000000       3.60000000       3.60000000      51.99610000       21        3
Fe       0.00000000       5.40000000       5.40000000      55.84500000       22        4
Cr       1.80000000       3.60000000       5.40000000      51.99610000       23        3
Co       1.80000000       5.40000000       3.60000000      58.93319400       24        1
Co       0.00000000       3.60000000       7.20000000      58.93319400       25        1
Cr       0.00000000       5.40000000       9.00000000      51.99610000       26        3
Mn       1.80000000       3.60000000       9.00000000      54.93804400       27        5
Co       1.80000000       5.40000000       7.20000000      58.93319400       28        1
Co       0.00000000       3.60000000      10.80000000      58.93319400       29        1
Fe       0.00000000       5.40000000      12.60000000      55.84500000       30        4
Mn       1.80000000       3.60000000      12.60000000      54.93804400       31        5
Ni       1.80000000       5.40000000      10.80000000      58.69340000       32        2
Mn       0.00000000       7.20000000       0.00000000      54.93804400       33        5
Co       0.00000000       9.00000000       1.80000000      58.93319400       34        1
Mn       1.80000000       7.20000000       1.80000000      54.93804400       35        5
Ni       1.80000000       9.00000000       0.00000000      58.69340000       36        2
Mn       0.00000000       7.20000000       3.60000000      54.93804400       37        5
Fe       0.00000000       9.00000000       5.40000000      55.84500000       38        4
Cr       1.80000000       7.20000000       5.40000000      51.99610000       39        3
Fe       1.80000000       9.00000000       3.60000000      55.84500000       40        4
Cr       0.00000000       7.20000000       7.20000000      51.99610000       41        3
Mn       0.00000000       9.00000000       9.00000000      54.93804400       42        5
Ni       1.80000000       7.20000000       9.00000000      58.69340000       43        2
Fe       1.80000000       9.00000000       7.20000000      55.84500000       44        4
Ni       0.00000000       7.20000000      10.80000000      58.69340000       45        2
Mn       0.00000000       9.00000000      12.60000000      54.93804400       46        5
Mn       1.80000000       7.20000000      12.60000000      54.93804400       47        5
Mn       1.80000000       9.00000000      10.80000000      54.93804400       48        5
Mn       0.00000000      10.80000000       0.00000000      54.93804400       49        5
Fe       0.00000000      12.60000000       1.80000000      55.84500000       50        4
Cr       1.80000000      10.80000000       1.80000000      51.99610000       51        3
Co       1.80000000      12.60000000       0.00000000      58.93319400       52        1
Cr       0.00000000      10.80000000       3.60000000      51.99610000       53        3
Fe       0.00000000      12.60000000       5.40000000      55.84500000       54        4
Co       1.80000000      10.80000000       5.40000000      58.93319400       55        1
Cr       1.80000000      12.60000000       3.60000000      51.99610000       56        3
Mn       0.00000000      10.80000000       7.20000000      54.93804400       57        5
Ni       0.00000000      12.60000000       9.00000000      58.69340000       58        2
Ni       1.80000000      10.80000000       9.00000000      58.69340000       59        2
Cr       1.80000000      12.60000000       7.20000000      51.99610000       60        3
Co       0.00000000      10.80000000      10.80000000      58.93319400       61        1
Ni       0.00000000      12.60000000      12.60000000      58.69340000       62        2
Ni       1.80000000      10.80000000      12.60000000      58.69340000       63        2
Mn       1.80000000      12.60000000      10.80000000      54.93804400       64        5
Fe       3.60000000       0.00000000       0.00000000      55.84500000       65        4
Cr       3.60000000       1.80000000       1.80000000      51.99610000       66        3
Cr       5.40000000       0.00000000       1.80000000      51.99610000       67        3
Fe       5.40000000       1.80000000       0.00000000      55.84500000       68        4
Fe       3.60000000       0.00000000       3.60000000      55.84500000       69        4
Cr       3.60000000       1.80000000       5.40000000      51.99610000       70        3
Cr       5.40000000       0.00000000       5.40000000      51.99610000       71        3
Cr       5.40000000       1.80000000       3.60000000      51.99610000       72        3
Fe       3.60000000       0.00000000       7.20000000      55.84500000       73        4
Co       3.60000000       1.80000000       9.00000000      58.93319400       74        1
Cr       5.40000000       0.00000000       9.00000000      51.99610000       75        3
Fe       5.40000000       1.80000000       7.20000000      55.84500000       76        4
Co       3.60000000       0.00000000      10.80000000      58.93319400       77        1
Ni       3.60000000       1.80000000      12.60000000      58.69340000       78        2
Cr       5.40000000       0.00000000      12.60000000      51.99610000       79        3
Fe       5.40000000       1.80000000      10.80000000      55.84500000       80        4
Mn       3.60000000       3.60000000       0.00000000      54.93804400       81        5
Mn       3.60000000       5.40000000       1.80000000      54.93804400       82        5
Co       5.40000000       3.60000000       1.80000000      58.93319400       83        1
Ni       5.40000000       5.40000000       0.00000000      58.69340000       84        2
Fe       3.60000000       3.60000000       3.60000000      55.84500000       85        4
Cr       3.60000000       5.40000000       5.40000000      51.99610000       86        3
Co       5.40000000       3.60000000       5.40000000      58.93319400       87        1
Cr       5.40000000       5.40000000       3.60000000      51.99610000       88        3
Fe       3.60000000       3.60000000       7.20000000      55.84500000       89        4
Ni       3.60000000       5.40000000       9.00000000      58.69340000       90        2
Mn       5.40000000       3.60000000       9.00000000      54.93804400       91        5
Co       5.40000000       5.40000000       7.20000000      58.93319400       92        1
Mn       3.60000000       3.60000000      10.80000000      54.93804400       93        5
Ni       3.60000000       5.40000000      12.60000000      58.69340000       94        2
Mn       5.40000000       3.60000000      12.60000000      54.93804400       95        5
Ni       5.40000000       5.40000000      10.80000000      58.69340000       96        2
Co       3.60000000       7.20000000       0.00000000      58.93319400       97        1
Fe       3.60000000       9.00000000       1.80000000      55.84500000       98        4
Fe       5.40000000       7.20000000       1.80000000      55.84500000       99        4
Mn       5.40000000       9.00000000       0.00000000      54.93804400      100        5
Co       3.60000000       7.20000000       3.60000000      58.93319400      101        1
Cr       3.60000000       9.00000000       5.40000000      51.99610000      102        3
Cr       5.40000000       7.20000000       5.40000000      51.99610000      103        3
Cr       5.40000000       9.00000000       3.60000000      51.99610000      104        3
Fe       3.60000000       7.20000000       7.20000000      55.84500000      105        4
Co       3.60000000       9.00000000       9.00000000      58.93319400      106        1
Mn       5.40000000       7.20000000       9.00000000      54.93804400      107        5
Fe       5.40000000       9.00000000       7.20000000      55.84500000      108        4
Mn       3.60000000       7.20000000      10.80000000      54.93804400      109        5
Ni       3.60000000       9.00000000      12.60000000      58.69340000      110        2
Mn       5.40000000       7.20000000      12.60000000      54.93804400      111        5
Ni       5.40000000       9.00000000      10.80000000      58.69340000      112        2
Mn       3.60000000      10.80000000       0.00000000      54.93804400      113        5
Cr       3.60000000      12.60000000       1.80000000      51.99610000      114        3
Fe       5.40000000      10.80000000       1.80000000      55.84500000      115        4
Co       5.40000000      12.60000000       0.00000000      58.93319400      116        1
Fe       3.60000000      10.80000000       3.60000000      55.84500000      117        4
Co       3.60000000      12.60000000       5.40000000      58.93319400      118        1
Cr       5.40000000      10.80000000       5.40000000      51.99610000      119        3
Cr       5.40000000      12.60000000       3.60000000      51.99610000      120        3
Cr       3.60000000      10.80000000       7.20000000      51.99610000      121        3
Fe       3.60000000      12.60000000       9.00000000      55.84500000      122        4
Fe       5.40000000      10.80000000       9.00000000      55.84500000      123        4
Cr       5.40000000      12.60000000       7.20000000      51.99610000      124        3
Mn       3.60000000      10.80000000      10.80000000      54.93804400      125        5
Ni       3.60000000      12.60000000      12.60000000      58.69340000      126        2
Co       5.40000000      10.80000000      12.60000000      58.93319400      127        1
Cr       5.40000000      12.60000000      10.80000000      51.99610000      128        3
Cr       7.20000000       0.00000000       0.00000000      51.99610000      129        3
Cr       7.20000000       1.80000000       1.80000000      51.99610000      130        3
Cr       9.00000000       0.00000000       1.80000000      51.99610000      131        3
Cr       9.00000000       1.80000000       0.00000000      51.99610000      132        3
Fe       7.20000000       0.00000000       3.60000000      55.84500000      133        4
Cr       7.20000000       1.80000000       5.40000000      51.99610000      134        3
Fe       9.00000000       0.00000000       5.40000000      55.84500000      135        4
Fe       9.00000000       1.80000000       3.60000000      55.84500000      136        4
Fe       7.20000000       0.00000000       7.20000000      55.84500000      137        4
Co       7.20000000       1.80000000       9.00000000      58.93319400      138        1
Mn       9.00000000       0.00000000       9.00000000      54.93804400      139        5
Ni       9.00000000       1.80000000       7.20000000      58.69340000      140        2
Fe       7.20000000       0.00000000      10.80000000      55.84500000      141        4
Co       7.20000000       1.80000000      12.60000000      58.93319400      142        1
Fe       9.00000000       0.00000000      12.60000000      55.84500000      143        4
Ni       9.00000000       1.80000000      10.80000000      58.69340000      144        2
Fe       7.20000000       3.60000000       0.00000000      55.84500000      145        4
Cr       7.20000000       5.40000000       1.80000000      51.99610000      146        3
Co       9.00000000       3.60000000       1.80000000      58.93319400      147        1
Ni       9.00000000       5.40000000       0.00000000      58.69340000      148        2
Fe       7.20000000       3.60000000       3.60000000      55.84500000      149        4
Fe       7.20000000       5.40000000       5.40000000      55.84500000      150        4
Co       9.00000000       3.60000000       5.40000000      58.93319400      151        1
Cr       9.00000000       5.40000000       3.60000000      51.99610000      152        3
Mn       7.20000000       3.60000000       7.20000000      54.93804400      153        5
Ni       7.20000000       5.40000000       9.00000000      58.69340000      154        2
Mn       9.00000000       3.60000000       9.00000000      54.93804400      155        5
Ni       9.00000000       5.40000000       7.20000000      58.69340000      156        2
Mn       7.20000000       3.60000000      10.80000000      54.93804400      157        5
Mn       7.20000000       5.40000000      12.60000000      54.93804400      158        5
Ni       9.00000000       3.60000000      12.60000000      58.69340000      159        2
Ni       9.00000000       5.40000000      10.80000000      58.69340000      160        2
Co       7.20000000       7.20000000       0.00000000      58.93319400      161        1
Cr       7.20000000       9.00000000       1.80000000      51.99610000      162        3
Fe       9.00000000       7.20000000       1.80000000      55.84500000      163        4
Fe       9.00000000       9.00000000       0.00000000      55.84500000      164        4
Co       7.20000000       7.20000000       3.60000000      58.93319400      165        1
Co       7.20000000       9.00000000       5.40000000      58.93319400      166        1
Ni       9.00000000       7.20000000       5.40000000      58.69340000      167        2
Mn       9.00000000       9.00000000       3.60000000      54.93804400      168        5
Mn       7.20000000       7.20000000       7.20000000      54.93804400      169        5
Ni       7.20000000       9.00000000       9.00000000      58.69340000      170        2
Ni       9.00000000       7.20000000       9.00000000      58.69340000      171        2
Mn       9.00000000       9.00000000       7.20000000      54.93804400      172        5
Mn       7.20000000       7.20000000      10.80000000      54.93804400      173        5
Ni       7.20000000       9.00000000      12.60000000      58.69340000      174        2
Ni       9.00000000       7.20000000      12.60000000      58.69340000      175        2
Mn       9.00000000       9.00000000      10.80000000      54.93804400      176        5
Cr       7.20000000      10.80000000       0.00000000      51.99610000      177        3
Co       7.20000000      12.60000000       1.80000000      58.93319400      178        1
Co       9.00000000      10.80000000       1.80000000      58.93319400      179        1
Fe       9.00000000      12.60000000       0.00000000      55.84500000      180        4
Mn       7.20000000      10.80000000       3.60000000      54.93804400      181        5
Co       7.20000000      12.60000000       5.40000000      58.93319400      182        1
Ni       9.00000000      10.80000000       5.40000000      58.69340000      183        2
Cr       9.00000000      12.60000000       3.60000000      51.99610000      184        3
Fe       7.20000000      10.80000000       7.20000000      55.84500000      185        4
Co       7.20000000      12.60000000       9.00000000      58.93319400      186        1
Co       9.00000000      10.80000000       9.00000000      58.93319400      187        1
Mn       9.00000000      12.60000000       7.20000000      54.93804400      188        5
Fe       7.20000000      10.80000000      10.80000000      55.84500000      189        4
Cr       7.20000000      12.60000000      12.60000000      51.99610000      190        3
Co       9.00000000      10.80000000      12.60000000      58.93319400      191        1
Mn       9.00000000      12.60000000      10.80000000      54.93804400      192        5
Cr      10.80000000       0.00000000       0.00000000      51.99610000      193        3
Fe      10.80000000       1.80000000       1.80000000      55.84500000      194        4
Cr      12.60000000       0.00000000       1.80000000      51.99610000      195        3
Co      12.60000000       1.80000000       0.00000000      58.93319400      196        1
Co      10.80000000       0.00000000       3.60000000      58.93319400      197        1
Ni      10.80000000       1.80000000       5.40000000      58.69340000      198        2
Mn      12.60000000       0.00000000       5.40000000      54.93804400      199        5
Fe      12.60000000       1.80000000       3.60000000      55.84500000      200        4
Co      10.80000000       0.00000000       7.20000000      58.93319400      201        1
Ni      10.80000000       1.80000000       9.00000000      58.69340000      202        2
Mn      12.60000000       0.00000000       9.00000000      54.93804400      203        5
Mn      12.60000000       1.80000000       7.20000000      54.93804400      204        5
Co      10.80000000       0.00000000      10.80000000      58.93319400      205        1
Fe      10.80000000       1.80000000      12.60000000      55.84500000      206        4
Mn      12.60000000       0.00000000      12.60000000      54.93804400      207        5
Mn      12.60000000       1.80000000      10.80000000      54.93804400      208        5
Ni      10.80000000       3.60000000       0.00000000      58.69340000      209        2
Mn      10.80000000       5.40000000       1.80000000      54.93804400      210        5
Cr      12.60000000       3.60000000       1.80000000      51.99610000      211        3
Co      12.60000000       5.40000000       0.00000000      58.93319400      212        1
Cr      10.80000000       3.60000000       3.60000000      51.99610000      213        3
Fe      10.80000000       5.40000000       5.40000000      55.84500000      214        4
Co      12.60000000       3.60000000       5.40000000      58.93319400      215        1
Fe      12.60000000       5.40000000       3.60000000      55.84500000      216        4
Mn      10.80000000       3.60000000       7.20000000      54.93804400      217        5
Co      10.80000000       5.40000000       9.00000000      58.93319400      218        1
Fe      12.60000000       3.60000000       9.00000000      55.84500000      219        4
Fe      12.60000000       5.40000000       7.20000000      55.84500000      220        4
Co      10.80000000       3.60000000      10.80000000      58.93319400      221        1
Mn      10.80000000       5.40000000      12.60000000      54.93804400      222        5
Cr      12.60000000       3.60000000      12.60000000      51.99610000      223        3
Mn      12.60000000       5.40000000      10.80000000      54.93804400      224        5
Mn      10.80000000       7.20000000       0.00000000      54.93804400      225        5
Mn      10.80000000       9.00000000       1.80000000      54.93804400      226        5
Ni      12.60000000       7.20000000       1.80000000      58.69340000      227        2
Ni      12.60000000       9.00000000       0.00000000      58.69340000      228        2
Co      10.80000000       7.20000000       3.60000000      58.93319400      229        1
Ni      10.80000000       9.00000000       5.40000000      58.69340000      230        2
Co      12.60000000       7.20000000       5.40000000      58.93319400      231        1
Mn      12.60000000       9.00000000       3.60000000      54.93804400      232        5
Mn      10.80000000       7.20000000       7.20000000      54.93804400      233        5
Mn      10.80000000       9.00000000       9.00000000      54.93804400      234        5
Ni      12.60000000       7.20000000       9.00000000      58.69340000      235        2
Ni      12.60000000       9.00000000       7.20000000      58.69340000      236        2
Ni      10.80000000       7.20000000      10.80000000      58.69340000      237        2
Mn      10.80000000       9.00000000      12.60000000      54.93804400      238        5
Ni      12.60000000       7.20000000      12.60000000      58.69340000      239        2
Ni      12.60000000       9.00000000      10.80000000      58.69340000      240        2
Mn      10.80000000      10.80000000       0.00000000      54.93804400      241        5
Fe      10.80000000      12.60000000       1.80000000      55.84500000      242        4
Co      12.60000000      10.80000000       1.80000000      58.93319400      243        1
Ni      12.60000000      12.60000000       0.00000000      58.69340000      244        2
Fe      10.80000000      10.80000000       3.60000000      55.84500000      245        4
Fe      10.80000000      12.60000000       5.40000000      55.84500000      246        4
Co      12.60000000      10.80000000       5.40000000      58.93319400      247        1
Cr      12.60000000      12.60000000       3.60000000      51.99610000      248        3
Mn      10.80000000      10.80000000       7.20000000      54.93804400      249        5
Ni      10.80000000      12.60000000       9.00000000      58.69340000      250        2
Ni      12.60000000      10.80000000       9.00000000      58.69340000      251        2
Mn      12.60000000      12.60000000       7.20000000      54.93804400      252        5
Mn      10.80000000      10.80000000      10.80000000      54.93804400      253        5
Co      10.80000000      12.60000000      12.60000000      58.93319400      254        1
Ni      12.60000000      10.80000000      12.60000000      58.69340000      255        2
Mn      12.60000000      12.60000000      10.80000000      54.93804400      256        5
