256
Lattice="14.4 0.0 0.0 0.0 14.4 0.0 0.0 0.0 14.4" Properties=species:S:1:pos:R:3:masses:R:1:id:I:1:type:I:1 comment="(written by ASE)" energy=-1025.55014179787 pbc="T T T"
Co       0.00000000       0.00000000       0.00000000      58.93319400        1        1
Mn       0.00000000       1.80000000       1.80000000      54.93804400        2        5
Fe       1.80000000       0.00000000       1.80000000      55.84500000        3        4
Mn       1.80000000       1.80000000       0.00000000      54.93804400        4        5
Ni       0.00000000       0.00000000       3.60000000      58.69340000        5        2
Mn       0.00000000       1.80000000       5.40000000      54.93804400        6        5
Mn       1.80000000       0.00000000       5.40000000      54.93804400        7        5
Co       1.80000000       1.80000000       3.60000000      58.93319400        8        1
Fe       0.00000000       0.00000000       7.20000000      55.84500000        9        4
Co       0.00000000       1.80000000       9.00000000      58.93319400       10        1
Mn       1.80000000       0.00000000       9.00000000      54.93804400       11        5
Co       1.80000000       1.80000000       7.20000000      58.93319400       12        1
Mn       0.00000000       0.00000000      10.80000000      54.93804400       13        5
Mn       0.00000000       1.80000000      12.60000000      54.93804400       14        5
Fe       1.80000000       0.00000000      12.60000000      55.84500000       15        4
Fe       1.80000000       1.80000000      10.80000000      55.84500000       16        4
Co       0.00000000       3.60000000       0.00000000      58.93319400       17        1
Mn       0.00000000       5.40000000       1.80000000      54.93804400       18        5
Fe       1.80000000       3.60000000       1.80000000      55.84500000       19        4
Mn       1.80000000       5.40000000       0.00000000      54.93804400       20        5
Co       0.00000000       3.60000000       3.60000000      58.93319400       21        1
Mn       0.00000000       5.40000000       5.40000000      54.93804400       22        5
Fe       1.80000000       3.60000000       5.40000000      55.84500000       23        4
Ni       1.80000000       5.40000000       3.60000000      58.69340000       24        2
Fe       0.00000000       3.60000000       7.20000000      55.84500000       25        4
Mn       0.00000000       5.40000000       9.00000000      54.93804400       26        5
Mn       1.80000000       3.60000000       9.00000000      54.93804400       27        5
Co       1.80000000       5.40000000       7.20000000      58.93319400       28        1
Fe       0.00000000       3.60000000      10.80000000      55.84500000       29        4
Co       0.00000000       5.40000000      12.60000000      58.93319400       30        1
Fe       1.80000000       3.60000000      12.60000000      55.84500000       31        4
Mn       1.80000000       5.40000000      10.80000000      54.93804400       32        5
Fe       0.00000000       7.20000000       0.00000000      55.84500000       33        4
Mn       0.00000000       9.00000000       1.80000000      54.93804400       34        5
Ni       1.80000000       7.20000000       1.80000000      58.69340000       35        2
Cr       1.80000000       9.00000000       0.00000000      51.99610000       36        3
Fe       0.00000000       7.20000000       3.60000000      55.84500000       37        4
Mn       0.00000000       9.00000000       5.40000000      54.93804400       38        5
Cr       1.80000000       7.20000000       5.40000000      51.99610000       39        3
Ni       1.80000000       9.00000000       3.60000000      58.69340000       40        2
Fe       0.00000000       7.20000000       7.20000000      55.84500000       41        4
Mn       0.00000000       9.00000000       9.00000000      54.93804400       42        5
Fe       1.80000000       7.20000000       9.00000000      55.84500000       43        4
Co       1.80000000       9.00000000       7.20000000      58.93319400       44        1
Co       0.00000000       7.20000000      10.80000000      58.93319400       45        1
Co       0.00000000       9.00000000      12.60000000      58.93319400       46        1
Mn       1.80000000       7.20000000      12.60000000      54.93804400       47        5
Fe       1.80000000       9.00000000      10.80000000      55.84500000       48        4
Fe       0.00000000      10.80000000       0.00000000      55.84500000       49        4
Ni       0.00000000      12.60000000       1.80000000      58.69340000       50        2
Ni       1.80000000      10.80000000       1.80000000      58.69340000       51        2
Cr       1.80000000      12.60000000       0.00000000      51.99610000       52        3
Fe       0.00000000      10.80000000       3.60000000      55.84500000       53        4
Mn       0.00000000      12.60000000       5.40000000      54.93804400       54        5
Mn       1.80000000      10.80000000       5.40000000      54.93804400       55        5
Cr       1.80000000      12.60000000       3.60000000      51.99610000       56        3
Fe       0.00000000      10.80000000       7.20000000      55.84500000       57        4
Mn       0.00000000      12.60000000       9.00000000      54.93804400       58        5
Ni       1.80000000      10.80000000       9.00000000      58.69340000       59        2
Co       1.80000000      12.60000000       7.20000000      58.93319400       60        1
Mn       0.00000000      10.80000000      10.80000000      54.93804400       61        5
Co       0.00000000      12.60000000      12.60000000      58.93319400       62        1
Mn       1.80000000      10.80000000      12.60000000      54.93804400       63        5
Co       1.80000000      12.60000000      10.80000000      58.93319400       64        1
Ni       3.60000000       0.00000000       0.00000000      58.69340000       65        2
Mn       3.60000000       1.80000000       1.80000000      54.93804400       66        5
Fe       5.40000000       0.00000000       1.80000000      55.84500000       67        4
Cr       5.40000000       1.80000000       0.00000000      51.99610000       68        3
Fe       3.60000000       0.00000000       3.60000000      55.84500000       69        4
Mn       3.60000000       1.80000000       5.40000000      54.93804400       70        5
Mn       5.40000000       0.00000000       5.40000000      54.93804400       71        5
Co       5.40000000       1.80000000       3.60000000      58.93319400       72        1
Fe       3.60000000       0.00000000       7.20000000      55.84500000       73        4
Mn       3.60000000       1.80000000       9.00000000      54.93804400       74        5
Mn       5.40000000       0.00000000       9.00000000      54.93804400       75        5
Fe       5.40000000       1.80000000       7.20000000      55.84500000       76        4
Ni       3.60000000       0.00000000      10.80000000      58.69340000       77        2
Mn       3.60000000       1.80000000      12.60000000      54.93804400       78        5
Cr       5.40000000       0.00000000      12.60000000      51.99610000       79        3
Fe       5.40000000       1.80000000      10.80000000      55.84500000       80        4
Ni       3.60000000       3.60000000       0.00000000      58.69340000       81        2
Cr       3.60000000       5.40000000       1.80000000      51.99610000       82        3
Ni       5.40000000       3.60000000       1.80000000      58.69340000       83        2
Cr       5.40000000       5.40000000       0.00000000      51.99610000       84        3
Mn       3.60000000       3.60000000       3.60000000      54.93804400       85        5
Fe       3.60000000       5.40000000       5.40000000      55.84500000       86        4
Mn       5.40000000       3.60000000       5.40000000      54.93804400       87        5
Cr       5.40000000       5.40000000       3.60000000      51.99610000       88        3
Co       3.60000000       3.60000000       7.20000000      58.93319400       89        1
Fe       3.60000000       5.40000000       9.00000000      55.84500000       90        4
Mn       5.40000000       3.60000000       9.00000000      54.93804400       91        5
Ni       5.40000000       5.40000000       7.20000000      58.69340000       92        2
Co       3.60000000       3.60000000      10.80000000      58.93319400       93        1
Fe       3.60000000       5.40000000      12.60000000      55.84500000       94        4
Co       5.40000000       3.60000000      12.60000000      58.93319400       95        1
Mn       5.40000000       5.40000000      10.80000000      54.93804400       96        5
Ni       3.60000000       7.20000000       0.00000000      58.69340000       97        2
Cr       3.60000000       9.00000000       1.80000000      51.99610000       98        3
Ni       5.40000000       7.20000000       1.80000000      58.69340000       99        2
Cr       5.40000000       9.00000000       0.00000000      51.99610000      100        3
Cr       3.60000000       7.20000000       3.60000000      51.99610000      101        3
Ni       3.60000000       9.00000000       5.40000000      58.69340000      102        2
Ni       5.40000000       7.20000000       5.40000000      58.69340000      103        2
Ni       5.40000000       9.00000000       3.60000000      58.69340000      104        2
Cr       3.60000000       7.20000000       7.20000000      51.99610000      105        3
Cr       3.60000000       9.00000000       9.00000000      51.99610000      106        3
Mn       5.40000000       7.20000000       9.00000000      54.93804400      107        5
Cr       5.40000000       9.00000000       7.20000000      51.99610000      108        3
Co       3.60000000       7.20000000      10.80000000      58.93319400      109        1
Ni       3.60000000       9.00000000      12.60000000      58.69340000      110        2
Cr       5.40000000       7.20000000      12.60000000      51.99610000      111        3
Cr       5.40000000       9.00000000      10.80000000      51.99610000      112        3
Ni       3.60000000      10.80000000       0.00000000      58.69340000      113        2
Cr       3.60000000      12.60000000       1.80000000      51.99610000      114        3
Cr       5.40000000      10.80000000       1.80000000      51.99610000      115        3
Ni       5.40000000      12.60000000       0.00000000      58.69340000      116        2
Cr       3.60000000      10.80000000       3.60000000      51.99610000      117        3
Co       3.60000000      12.60000000       5.40000000      58.93319400      118        1
Cr       5.40000000      10.80000000       5.40000000      51.99610000      119        3
Ni       5.40000000      12.60000000       3.60000000      58.69340000      120        2
Cr       3.60000000      10.80000000       7.20000000      51.99610000      121        3
Cr       3.60000000      12.60000000       9.00000000      51.99610000      122        3
Ni       5.40000000      10.80000000       9.00000000      58.69340000      123        2
Mn       5.40000000      12.60000000       7.20000000      54.93804400      124        5
Ni       3.60000000      10.80000000      10.80000000      58.69340000      125        2
Cr       3.60000000      12.60000000      12.60000000      51.99610000      126        3
Cr       5.40000000      10.80000000      12.60000000      51.99610000      127        3
Ni       5.40000000      12.60000000      10.80000000      58.69340000      128        2
Mn       7.20000000       0.00000000       0.00000000      54.93804400      129        5
Co       7.20000000       1.80000000       1.80000000      58.93319400      130        1
Fe       9.00000000       0.00000000       1.80000000      55.84500000      131        4
Fe       9.00000000       1.80000000       0.00000000      55.84500000      132        4
Mn       7.20000000       0.00000000       3.60000000      54.93804400      133        5
Co       7.20000000       1.80000000       5.40000000      58.93319400      134        1
Fe       9.00000000       0.00000000       5.40000000      55.84500000      135        4
Mn       9.00000000       1.80000000       3.60000000      54.93804400      136        5
Co       7.20000000       0.00000000       7.20000000      58.93319400      137        1
Co       7.20000000       1.80000000       9.00000000      58.93319400      138        1
Fe       9.00000000       0.00000000       9.00000000      55.84500000      139        4
Mn       9.00000000       1.80000000       7.20000000      54.93804400      140        5
Co       7.20000000       0.00000000      10.80000000      58.93319400      141        1
Fe       7.20000000       1.80000000      12.60000000      55.84500000      142        4
Co       9.00000000       0.00000000      12.60000000      58.93319400      143        1
Mn       9.00000000       1.80000000      10.80000000      54.93804400      144        5
Cr       7.20000000       3.60000000       0.00000000      51.99610000      145        3
Ni       7.20000000       5.40000000       1.80000000      58.69340000      146        2
Mn       9.00000000       3.60000000       1.80000000      54.93804400      147        5
Ni       9.00000000       5.40000000       0.00000000      58.69340000      148        2
Fe       7.20000000       3.60000000       3.60000000      55.84500000      149        4
Ni       7.20000000       5.40000000       5.40000000      58.69340000      150        2
Co       9.00000000       3.60000000       5.40000000      58.93319400      151        1
Cr       9.00000000       5.40000000       3.60000000      51.99610000      152        3
Mn       7.20000000       3.60000000       7.20000000      54.93804400      153        5
Fe       7.20000000       5.40000000       9.00000000      55.84500000      154        4
Mn       9.00000000       3.60000000       9.00000000      54.93804400      155        5
Co       9.00000000       5.40000000       7.20000000      58.93319400      156        1
Co       7.20000000       3.60000000      10.80000000      58.93319400      157        1
Fe       7.20000000       5.40000000      12.60000000      55.84500000      158        4
Mn       9.00000000       3.60000000      12.60000000      54.93804400      159        5
Mn       9.00000000       5.40000000      10.80000000      54.93804400      160        5
Ni       7.20000000       7.20000000       0.00000000      58.69340000      161        2
Ni       7.20000000       9.00000000       1.80000000      58.69340000      162        2
Cr       9.00000000       7.20000000       1.80000000      51.99610000      163        3
Cr       9.00000000       9.00000000       0.00000000      51.99610000      164        3
Cr       7.20000000       7.20000000       3.60000000      51.99610000      165        3
Cr       7.20000000       9.00000000       5.40000000      51.99610000      166        3
Ni       9.00000000       7.20000000       5.40000000      58.69340000      167        2
Cr       9.00000000       9.00000000       3.60000000      51.99610000      168        3
Cr       7.20000000       7.20000000       7.20000000      51.99610000      169        3
Fe       7.20000000       9.00000000       9.00000000      55.84500000      170        4
Co       9.00000000       7.20000000       9.00000000      58.93319400      171        1
Cr       9.00000000       9.00000000       7.20000000      51.99610000      172        3
Fe       7.20000000       7.20000000      10.80000000      55.84500000      173        4
Ni       7.20000000       9.00000000      12.60000000      58.69340000      174        2
Cr       9.00000000       7.20000000      12.60000000      51.99610000      175        3
Mn       9.00000000       9.00000000      10.80000000      54.93804400      176        5
Ni       7.20000000      10.80000000       0.00000000      58.69340000      177        2
Ni       7.20000000      12.60000000       1.80000000      58.69340000      178        2
Cr       9.00000000      10.80000000       1.80000000      51.99610000      179        3
Mn       9.00000000      12.60000000       0.00000000      54.93804400      180        5
Ni       7.20000000      10.80000000       3.60000000      58.69340000      181        2
Ni       7.20000000      12.60000000       5.40000000      58.69340000      182        2
Cr       9.00000000      10.80000000       5.40000000      51.99610000      183        3
Cr       9.00000000      12.60000000       3.60000000      51.99610000      184        3
Ni       7.20000000      10.80000000       7.20000000      58.69340000      185        2
Fe       7.20000000      12.60000000       9.00000000      55.84500000      186        4
Ni       9.00000000      10.80000000       9.00000000      58.69340000      187        2
Cr       9.00000000      12.60000000       7.20000000      51.99610000      188        3
Cr       7.20000000      10.80000000      10.80000000      51.99610000      189        3
Fe       7.20000000      12.60000000      12.60000000      55.84500000      190        4
Co       9.00000000      10.80000000      12.60000000      58.93319400      191        1
Mn       9.00000000      12.60000000      10.80000000      54.93804400      192        5
Co      10.80000000       0.00000000       0.00000000      58.93319400      193        1
Mn      10.80000000       1.80000000       1.80000000      54.93804400      194        5
Fe      12.60000000       0.00000000       1.80000000      55.84500000      195        4
Fe      12.60000000       1.80000000       0.00000000      55.84500000      196        4
Co      10.80000000       0.00000000       3.60000000      58.93319400      197        1
Mn      10.80000000       1.80000000       5.40000000      54.93804400      198        5
Fe      12.60000000       0.00000000       5.40000000      55.84500000      199        4
Co      12.60000000       1.80000000       3.60000000      58.93319400      200        1
Mn      10.80000000       0.00000000       7.20000000      54.93804400      201        5
Co      10.80000000       1.80000000       9.00000000      58.93319400      202        1
Fe      12.60000000       0.00000000       9.00000000      55.84500000      203        4
Mn      12.60000000       1.80000000       7.20000000      54.93804400      204        5
Co      10.80000000       0.00000000      10.80000000      58.93319400      205        1
Fe      10.80000000       1.80000000      12.60000000      55.84500000      206        4
Mn      12.60000000       0.00000000      12.60000000      54.93804400      207        5
Fe      12.60000000       1.80000000      10.80000000      55.84500000      208        4
Co      10.80000000       3.60000000       0.00000000      58.93319400      209        1
Ni      10.80000000       5.40000000       1.80000000      58.69340000      210        2
Mn      12.60000000       3.60000000       1.80000000      54.93804400      211        5
Fe      12.60000000       5.40000000       0.00000000      55.84500000      212        4
Fe      10.80000000       3.60000000       3.60000000      55.84500000      213        4
Mn      10.80000000       5.40000000       5.40000000      54.93804400      214        5
Co      12.60000000       3.60000000       5.40000000      58.93319400      215        1
Co      12.60000000       5.40000000       3.60000000      58.93319400      216        1
Fe      10.80000000       3.60000000       7.20000000      55.84500000      217        4
Fe      10.80000000       5.40000000       9.00000000      55.84500000      218        4
Mn      12.60000000       3.60000000       9.00000000      54.93804400      219        5
Co      12.60000000       5.40000000       7.20000000      58.93319400      220        1
Co      10.80000000       3.60000000      10.80000000      58.93319400      221        1
Fe      10.80000000       5.40000000      12.60000000      55.84500000      222        4
Mn      12.60000000       3.60000000      12.60000000      54.93804400      223        5
Fe      12.60000000       5.40000000      10.80000000      55.84500000      224        4
Ni      10.80000000       7.20000000       0.00000000      58.69340000      225        2
Ni      10.80000000       9.00000000       1.80000000      58.69340000      226        2
Co      12.60000000       7.20000000       1.80000000      58.93319400      227        1
Co      12.60000000       9.00000000       0.00000000      58.93319400      228        1
Cr      10.80000000       7.20000000       3.60000000      51.99610000      229        3
Ni      10.80000000       9.00000000       5.40000000      58.69340000      230        2
Co      12.60000000       7.20000000       5.40000000      58.93319400      231        1
Cr      12.60000000       9.00000000       3.60000000      51.99610000      232        3
Fe      10.80000000       7.20000000       7.20000000      55.84500000      233        4
Co      10.80000000       9.00000000       9.00000000      58.93319400      234        1
Mn      12.60000000       7.20000000       9.00000000      54.93804400      235        5
Ni      12.60000000       9.00000000       7.20000000      58.69340000      236        2
Co      10.80000000       7.20000000      10.80000000      58.93319400      237        1
Mn      10.80000000       9.00000000      12.60000000      54.93804400      238        5
Mn      12.60000000       7.20000000      12.60000000      54.93804400      239        5
Fe      12.60000000       9.00000000      10.80000000      55.84500000      240        4
Fe      10.80000000      10.80000000       0.00000000      55.84500000      241        4
Ni      10.80000000      12.60000000       1.80000000      58.69340000      242        2
Cr      12.60000000      10.80000000       1.80000000      51.99610000      243        3
Co      12.60000000      12.60000000       0.00000000      58.93319400      244        1
Cr      10.80000000      10.80000000       3.60000000      51.99610000      245        3
Ni      10.80000000      12.60000000       5.40000000      58.69340000      246        2
Ni      12.60000000      10.80000000       5.40000000      58.69340000      247        2
Cr      12.60000000      12.60000000       3.60000000      51.99610000      248        3
Cr      10.80000000      10.80000000       7.20000000      51.99610000      249        3
Co      10.80000000      12.60000000       9.00000000      58.93319400      250        1
Ni      12.60000000      10.80000000       9.00000000      58.69340000      251        2
Cr      12.60000000      12.60000000       7.20000000      51.99610000      252        3
Co      10.80000000      10.80000000      10.80000000      58.93319400      253        1
Mn      10.80000000      12.60000000      12.60000000      54.93804400      254        5
Mn      12.60000000      10.80000000      12.60000000      54.93804400      255        5
Fe      12.60000000      12.60000000      10.80000000      55.84500000      256        4
