2
Lattice="12.025693879326065 0.0 0.0 6.012846939663032 10.414551541843355 0.0 0.0 0.0 16.24012235072364" Properties=species:S:1:pos:R:3:forces:R:3:magmoms:R:1 energy=-34662.12536914004 free_energy=-34662.12536914004 pbc="T T T"
Fe      -2.00420400       1.15712700      -2.51997600      -0.78745896      -0.18944042       0.53033091       0.00000000
N       -0.42265909      -1.72122261       2.30679745       0.30454408      -0.94984444       0.92083546       0.00000000
2
Lattice="12.025693879326065 0.0 0.0 6.012846939663032 10.414551541843355 0.0 0.0 0.0 16.24012235072364" Properties=species:S:1:pos:R:3:forces:R:3:magmoms:R:1 energy=-34662.95476014726 free_energy=-34662.95476014726 pbc="T T T"
Fe      -2.00420400       1.15712700      -2.51997600       1.28959695       0.65941057      -0.14824621       0.00000000
N        1.05128681      -1.59717456       1.30374944      -0.44579458      -1.11861242       0.62872265       0.00000000
2
Lattice="12.025693879326065 0.0 0.0 6.012846939663032 10.414551541843355 0.0 0.0 0.0 16.24012235072364" Properties=species:S:1:pos:R:3:forces:R:3:magmoms:R:1 energy=-34662.535157070575 free_energy=-34662.535157070575 pbc="T T T"
Fe      -2.00420400       1.15712700      -2.51997600      -0.60767226       0.21618838       0.59512836       0.00000000
N        0.85417668      -1.57521616       1.71632039      -0.78904662      -3.38165269       1.44855541       0.00000000
2
Lattice="12.025693879326065 0.0 0.0 6.012846939663032 10.414551541843355 0.0 0.0 0.0 16.24012235072364" Properties=species:S:1:pos:R:3:forces:R:3:magmoms:R:1 energy=-34662.68565820062 free_energy=-34662.68565820062 pbc="T T T"
Fe      -2.00420400       1.15712700      -2.51997600       0.21376229      -0.38948253      -0.18235292       0.00000000
N        0.45976894      -1.11098895       1.57350306       0.11443672      -1.90870985       2.35901646       0.00000000
2
Lattice="12.025693879326065 0.0 0.0 6.012846939663032 10.414551541843355 0.0 0.0 0.0 16.24012235072364" Properties=species:S:1:pos:R:3:forces:R:3:magmoms:R:1 energy=-34664.572246301585 free_energy=-34664.572246301585 pbc="T T T"
Fe      -2.00420400       1.15712700      -2.51997600      -0.09463022      -0.30578207      -0.36451661       0.00000000
N       -0.02703602      -1.39103365       1.77195869       0.07067603      -0.66273295       0.79915517       0.00000000
2
Lattice="12.025693879326065 0.0 0.0 6.012846939663032 10.414551541843355 0.0 0.0 0.0 16.24012235072364" Properties=species:S:1:pos:R:3:forces:R:3:magmoms:R:1 energy=-34662.288467644205 free_energy=-34662.288467644205 pbc="T T T"
Fe      -2.00420400       1.15712700      -2.51997600       0.14778315      -0.84139839      -0.19346651       0.00000000
N        0.45390912      -1.14404961       1.72325609       0.21423974      -0.98775176       1.43782337       0.00000000
2
Lattice="12.025693879326065 0.0 0.0 6.012846939663032 10.414551541843355 0.0 0.0 0.0 16.24012235072364" Properties=species:S:1:pos:R:3:forces:R:3:magmoms:R:1 energy=-34663.41446042259 free_energy=-34663.41446042259 pbc="T T T"
Fe      -2.00420400       1.15712700      -2.51997600       0.30926566       0.36956394      -0.13696421       0.00000000
N       -0.22313465      -1.53309235       1.95137928      -0.68723968       1.54354173      -1.99255944       0.00000000
2
Lattice="12.025693879326065 0.0 0.0 6.012846939663032 10.414551541843355 0.0 0.0 0.0 16.24012235072364" Properties=species:S:1:pos:R:3:forces:R:3:magmoms:R:1 energy=-34663.060024392486 free_energy=-34663.060024392486 pbc="T T T"
Fe      -2.00420400       1.15712700      -2.51997600       1.12324864       0.10006014       0.57548925       0.00000000
N        0.67836053      -1.43232043       1.21928897       0.13160886       0.08016982       0.57827504       0.00000000
2
Lattice="12.025693879326065 0.0 0.0 6.012846939663032 10.414551541843355 0.0 0.0 0.0 16.24012235072364" Properties=species:S:1:pos:R:3:forces:R:3:magmoms:R:1 energy=-34662.97879392177 free_energy=-34662.97879392177 pbc="T T T"
Fe      -2.00420400       1.15712700      -2.51997600      -0.93092215       0.14469732       0.44969983       0.00000000
N        0.97936699      -1.80637293       1.64765471      -0.07451468      -0.42399831       0.89041545       0.00000000
2
Lattice="12.025693879326065 0.0 0.0 6.012846939663032 10.414551541843355 0.0 0.0 0.0 16.24012235072364" Properties=species:S:1:pos:R:3:forces:R:3:magmoms:R:1 energy=-34662.47831112911 free_energy=-34662.47831112911 pbc="T T T"
Fe       4.00861200       4.62866400      -2.52043000      -0.32187023       1.17351113       0.19959937       0.00000000
N       -0.29295976      -1.60755718       2.20517364       0.22066956      -1.11152312       0.78198097       0.00000000
2
Lattice="12.025693879326065 0.0 0.0 6.012846939663032 10.414551541843355 0.0 0.0 0.0 16.24012235072364" Properties=species:S:1:pos:R:3:forces:R:3:magmoms:R:1 energy=-34663.48272167563 free_energy=-34663.48272167563 pbc="T T T"
Fe      -2.00420400       1.15712700      -2.51997600       0.35618341       0.52043216      -0.03719898       0.00000000
N       -0.22314228      -1.50513600       1.89360633       0.38552818      -1.25824852       1.30797469       0.00000000
2
Lattice="12.025693879326065 0.0 0.0 6.012846939663032 10.414551541843355 0.0 0.0 0.0 16.24012235072364" Properties=species:S:1:pos:R:3:forces:R:3:magmoms:R:1 energy=-34662.556159632986 free_energy=-34662.556159632986 pbc="T T T"
Fe      -2.00420400       1.15712700      -2.51997600      -0.65786122      -0.49407347      -0.04325521       0.00000000
N       -0.30267612      -1.62530937       2.22770155       0.10716821       0.40851872      -0.67003925       0.00000000
2
Lattice="12.025693879326065 0.0 0.0 6.012846939663032 10.414551541843355 0.0 0.0 0.0 16.24012235072364" Properties=species:S:1:pos:R:3:forces:R:3:magmoms:R:1 energy=-34662.501118894725 free_energy=-34662.501118894725 pbc="T T T"
Fe      -2.00420400       1.15712700      -2.51997600      -0.07560894       0.61203182      -0.07102467       0.00000000
N        0.59607011      -1.67594286       1.83771166      -0.16273952      -1.14218944       0.40903166       0.00000000
2
Lattice="12.025693879326065 0.0 0.0 6.012846939663032 10.414551541843355 0.0 0.0 0.0 16.24012235072364" Properties=species:S:1:pos:R:3:forces:R:3:magmoms:R:1 energy=-34662.27525556494 free_energy=-34662.27525556494 pbc="T T T"
Fe      -2.00420400       1.15712700      -2.51997600       0.13247429      -0.07645330      -1.12457018       0.00000000
N        0.58665376      -1.72877170       1.84636587      -0.37379623      -2.21345423       1.05434616       0.00000000
2
Lattice="12.025693879326065 0.0 0.0 6.012846939663032 10.414551541843355 0.0 0.0 0.0 16.24012235072364" Properties=species:S:1:pos:R:3:forces:R:3:magmoms:R:1 energy=-34662.88210833742 free_energy=-34662.88210833742 pbc="T T T"
Fe      -2.00420400       1.15712700      -2.51997600      -0.62521670       1.37792669      -0.39716859       0.00000000
N        1.17414931      -1.79570656       1.95789277      -0.06598505       1.98662354      -1.87175513       0.00000000
2
Lattice="12.025693879326065 0.0 0.0 6.012846939663032 10.414551541843355 0.0 0.0 0.0 16.24012235072364" Properties=species:S:1:pos:R:3:forces:R:3:magmoms:R:1 energy=-34662.83457440363 free_energy=-34662.83457440363 pbc="T T T"
Fe      -2.00420400       1.15712700      -2.51997600       0.33495304       0.69333576      -0.25705067       0.00000000
N        0.50652449      -1.25379779       1.49317512      -0.33240996      -1.87787513       0.95885436       0.00000000
2
Lattice="12.025693879326065 0.0 0.0 6.012846939663032 10.414551541843355 0.0 0.0 0.0 16.24012235072364" Properties=species:S:1:pos:R:3:forces:R:3:magmoms:R:1 energy=-34663.06351207556 free_energy=-34663.06351207556 pbc="T T T"
Fe      -2.00420400       1.15712700      -2.51997600       1.12168798       0.12157178       0.57455645       0.00000000
N        0.68552724      -1.44044118       1.22698987      -0.25686863      -0.49826025       0.16685688       0.00000000
2
Lattice="12.025693879326065 0.0 0.0 6.012846939663032 10.414551541843355 0.0 0.0 0.0 16.24012235072364" Properties=species:S:1:pos:R:3:forces:R:3:magmoms:R:1 energy=-34665.316843235254 free_energy=-34665.316843235254 pbc="T T T"
Fe      -2.00420400       1.15712700      -2.51997600      -0.00598861      -0.18786357      -0.20858177       0.00000000
N        0.01790473      -1.39146256       1.73904904       0.02421851       0.32320978      -0.41787163       0.00000000
2
Lattice="12.025693879326065 0.0 0.0 6.012846939663032 10.414551541843355 0.0 0.0 0.0 16.24012235072364" Properties=species:S:1:pos:R:3:forces:R:3:magmoms:R:1 energy=-34662.95065490183 free_energy=-34662.95065490183 pbc="T T T"
Fe      -2.00420400       1.15712700      -2.51997600       1.29958620       0.71562851      -0.11185379       0.00000000
N        1.06797781      -1.59269693       1.31458960      -0.58601766      -2.08838214       0.70037904       0.00000000
2
Lattice="12.025693879326065 0.0 0.0 6.012846939663032 10.414551541843355 0.0 0.0 0.0 16.24012235072364" Properties=species:S:1:pos:R:3:forces:R:3:magmoms:R:1 energy=-34663.13783779368 free_energy=-34663.13783779368 pbc="T T T"
Fe      -2.00420400       1.15712700      -2.51997600      -0.22717496      -0.47034424      -0.53750480       0.00000000
N       -0.10636703      -1.45113152       1.90456785       0.08341816       1.43117938      -1.69301512       0.00000000
2
Lattice="12.025693879326065 0.0 0.0 6.012846939663032 10.414551541843355 0.0 0.0 0.0 16.24012235072364" Properties=species:S:1:pos:R:3:forces:R:3:magmoms:R:1 energy=-34663.003597506344 free_energy=-34663.003597506344 pbc="T T T"
Fe      -2.00420400       1.15712700      -2.51997600       0.35787545       0.92166489       0.17632908       0.00000000
N        0.39942017      -1.22144339       1.94173538       0.78332900       1.81863177      -1.36221622       0.00000000