128
Lattice="12.776 0.0 0.0 0.0 12.776 0.0 0.0 0.0 12.776" Properties=species:S:1:pos:R:3 energy=-1580.165019 pbc="T T T"
Ta       0.00000000       0.00000000       0.00000000
Ta       0.00000000       0.00000000       3.19400000
Ta       0.00000000       3.19400000       0.00000000
Ta       0.00000000       3.19400000       3.19400000
Ta       3.19400000       0.00000000       0.00000000
Ta       3.19400000       0.00000000       3.19400000
Ta       3.19400000       3.19400000       0.00000000
Ta       3.19400000       3.19400000       3.19400000
Ta       1.59700000       1.59700000       1.59700000
Ta       1.59700000       1.59700000       4.79100000
Ta       1.59700000       4.79100000       1.59700000
Ta       4.79100000       1.59700000       1.59700000
Ta       4.79100000       4.79100000       4.79100000
Ta       4.79100000       4.79100000       1.59700000
Ta       4.79100000       1.59700000       4.79100000
Ta       1.59700000       4.79100000       4.79100000
Ta       3.19400000       0.00000000       6.38800000
Ta       3.19400000       0.00000000       9.58200000
Ta       3.19400000       3.19400000       6.38800000
Ta       3.19400000       3.19400000       9.58200000
Ta       1.59700000       1.59700000       7.98500000
Ta       1.59700000       1.59700000      11.17900000
Ta       1.59700000       4.79100000       7.98500000
Ta       4.79100000       1.59700000       7.98500000
Ta       4.79100000       4.79100000      11.17900000
Ta       4.79100000       4.79100000       7.98500000
Ta       4.79100000       1.59700000      11.17900000
Ta       1.59700000       4.79100000      11.17900000
Ta       0.00000000       6.38800000       0.00000000
Ta       0.00000000       6.38800000       3.19400000
Ta       0.00000000       9.58200000       0.00000000
Ta       0.00000000       9.58200000       3.19400000
Ta       3.19400000       6.38800000       0.00000000
Ta       3.19400000       6.38800000       3.19400000
Ta       3.19400000       9.58200000       0.00000000
Ta       3.19400000       9.58200000       3.19400000
Ta       4.79100000       7.98500000       4.79100000
Ta       0.00000000       6.38800000       6.38800000
Ta       0.00000000       6.38800000       9.58200000
Ta       0.00000000       9.58200000       6.38800000
Ta       0.00000000       9.58200000       9.58200000
Ta       6.38800000       0.00000000       0.00000000
Ta       6.38800000       0.00000000       3.19400000
Ta       6.38800000       3.19400000       0.00000000
Ta       6.38800000       3.19400000       3.19400000
Ta       9.58200000       0.00000000       0.00000000
Ta       9.58200000       0.00000000       3.19400000
Ta       9.58200000       3.19400000       0.00000000
Ta       9.58200000       3.19400000       3.19400000
Ta       7.98500000       1.59700000       1.59700000
Ta       7.98500000       1.59700000       4.79100000
Ta       7.98500000       4.79100000       1.59700000
Ta      11.17900000       1.59700000       1.59700000
Ta      11.17900000       4.79100000       4.79100000
Ta      11.17900000       4.79100000       1.59700000
Ta      11.17900000       1.59700000       4.79100000
Ta       7.98500000       4.79100000       4.79100000
Ta       9.58200000       0.00000000       6.38800000
Ta       9.58200000       0.00000000       9.58200000
Ta       9.58200000       3.19400000       6.38800000
Ta       9.58200000       3.19400000       9.58200000
Ta       7.98500000       1.59700000       7.98500000
Ta       7.98500000       1.59700000      11.17900000
Ta       7.98500000       4.79100000       7.98500000
Ta      11.17900000       1.59700000       7.98500000
Ta      11.17900000       4.79100000      11.17900000
Ta      11.17900000       4.79100000       7.98500000
Ta      11.17900000       1.59700000      11.17900000
Ta       7.98500000       4.79100000      11.17900000
Ta       6.38800000       6.38800000       0.00000000
Ta       6.38800000       6.38800000       3.19400000
Ta       6.38800000       9.58200000       0.00000000
Ta       6.38800000       9.58200000       3.19400000
Ta       9.58200000       6.38800000       0.00000000
Ta       9.58200000       6.38800000       3.19400000
Ta       9.58200000       9.58200000       0.00000000
Ta       9.58200000       9.58200000       3.19400000
Ta       6.38800000       6.38800000       6.38800000
Ta       6.38800000       6.38800000       9.58200000
Ta       6.38800000       9.58200000       6.38800000
Ta       6.38800000       9.58200000       9.58200000
W        0.00000000       0.00000000       6.38800000
W        0.00000000       0.00000000       9.58200000
W        0.00000000       3.19400000       6.38800000
W        0.00000000       3.19400000       9.58200000
W        1.59700000       7.98500000       1.59700000
W        1.59700000       7.98500000       4.79100000
W        1.59700000      11.17900000       1.59700000
W        4.79100000       7.98500000       1.59700000
W        4.79100000      11.17900000       4.79100000
W        4.79100000      11.17900000       1.59700000
W        1.59700000      11.17900000       4.79100000
W        3.19400000       6.38800000       6.38800000
W        3.19400000       6.38800000       9.58200000
W        3.19400000       9.58200000       6.38800000
W        3.19400000       9.58200000       9.58200000
W        1.59700000       7.98500000       7.98500000
W        1.59700000       7.98500000      11.17900000
W        1.59700000      11.17900000       7.98500000
W        4.79100000       7.98500000       7.98500000
W        4.79100000      11.17900000      11.17900000
W        4.79100000      11.17900000       7.98500000
W        4.79100000       7.98500000      11.17900000
W        1.59700000      11.17900000      11.17900000
W        6.38800000       0.00000000       6.38800000
W        6.38800000       0.00000000       9.58200000
W        6.38800000       3.19400000       6.38800000
W        6.38800000       3.19400000       9.58200000
W        7.98500000       7.98500000       1.59700000
W        7.98500000       7.98500000       4.79100000
W        7.98500000      11.17900000       1.59700000
W       11.17900000       7.98500000       1.59700000
W       11.17900000      11.17900000       4.79100000
W       11.17900000      11.17900000       1.59700000
W       11.17900000       7.98500000       4.79100000
W        7.98500000      11.17900000       4.79100000
W        9.58200000       6.38800000       6.38800000
W        9.58200000       6.38800000       9.58200000
W        9.58200000       9.58200000       6.38800000
W        9.58200000       9.58200000       9.58200000
W        7.98500000       7.98500000       7.98500000
W        7.98500000       7.98500000      11.17900000
W        7.98500000      11.17900000       7.98500000
W       11.17900000       7.98500000       7.98500000
W       11.17900000      11.17900000      11.17900000
W       11.17900000      11.17900000       7.98500000
W       11.17900000       7.98500000      11.17900000
W        7.98500000      11.17900000      11.17900000
