256
Lattice="14.4 0.0 0.0 0.0 14.4 0.0 0.0 0.0 14.4" Properties=species:S:1:pos:R:3:masses:R:1:id:I:1:type:I:1 comment="(written by ASE)" energy=-1021.95655582367 pbc="T T T"
Fe       0.00000000       0.00000000       0.00000000      55.84500000        1        4
Mn       0.00000000       1.80000000       1.80000000      54.93804400        2        5
Ni       1.80000000       0.00000000       1.80000000      58.69340000        3        2
Co       1.80000000       1.80000000       0.00000000      58.93319400        4        1
Ni       0.00000000       0.00000000       3.60000000      58.69340000        5        2
Co       0.00000000       1.80000000       5.40000000      58.93319400        6        1
Co       1.80000000       0.00000000       5.40000000      58.93319400        7        1
Co       1.80000000       1.80000000       3.60000000      58.93319400        8        1
Ni       0.00000000       0.00000000       7.20000000      58.69340000        9        2
Co       0.00000000       1.80000000       9.00000000      58.93319400       10        1
Ni       1.80000000       0.00000000       9.00000000      58.69340000       11        2
Co       1.80000000       1.80000000       7.20000000      58.93319400       12        1
Mn       0.00000000       0.00000000      10.80000000      54.93804400       13        5
Mn       0.00000000       1.80000000      12.60000000      54.93804400       14        5
Mn       1.80000000       0.00000000      12.60000000      54.93804400       15        5
Cr       1.80000000       1.80000000      10.80000000      51.99610000       16        3
Mn       0.00000000       3.60000000       0.00000000      54.93804400       17        5
Cr       0.00000000       5.40000000       1.80000000      51.99610000       18        3
Ni       1.80000000       3.60000000       1.80000000      58.69340000       19        2
Co       1.80000000       5.40000000       0.00000000      58.93319400       20        1
Ni       0.00000000       3.60000000       3.60000000      58.69340000       21        2
Co       0.00000000       5.40000000       5.40000000      58.93319400       22        1
Ni       1.80000000       3.60000000       5.40000000      58.69340000       23        2
Cr       1.80000000       5.40000000       3.60000000      51.99610000       24        3
Ni       0.00000000       3.60000000       7.20000000      58.69340000       25        2
Co       0.00000000       5.40000000       9.00000000      58.93319400       26        1
Ni       1.80000000       3.60000000       9.00000000      58.69340000       27        2
Co       1.80000000       5.40000000       7.20000000      58.93319400       28        1
Mn       0.00000000       3.60000000      10.80000000      54.93804400       29        5
Ni       0.00000000       5.40000000      12.60000000      58.69340000       30        2
Mn       1.80000000       3.60000000      12.60000000      54.93804400       31        5
Co       1.80000000       5.40000000      10.80000000      58.93319400       32        1
Fe       0.00000000       7.20000000       0.00000000      55.84500000       33        4
Mn       0.00000000       9.00000000       1.80000000      54.93804400       34        5
Co       1.80000000       7.20000000       1.80000000      58.93319400       35        1
Mn       1.80000000       9.00000000       0.00000000      54.93804400       36        5
Cr       0.00000000       7.20000000       3.60000000      51.99610000       37        3
Ni       0.00000000       9.00000000       5.40000000      58.69340000       38        2
Cr       1.80000000       7.20000000       5.40000000      51.99610000       39        3
Cr       1.80000000       9.00000000       3.60000000      51.99610000       40        3
Mn       0.00000000       7.20000000       7.20000000      54.93804400       41        5
Co       0.00000000       9.00000000       9.00000000      58.93319400       42        1
Ni       1.80000000       7.20000000       9.00000000      58.69340000       43        2
Co       1.80000000       9.00000000       7.20000000      58.93319400       44        1
Ni       0.00000000       7.20000000      10.80000000      58.69340000       45        2
Fe       0.00000000       9.00000000      12.60000000      55.84500000       46        4
Mn       1.80000000       7.20000000      12.60000000      54.93804400       47        5
Mn       1.80000000       9.00000000      10.80000000      54.93804400       48        5
Mn       0.00000000      10.80000000       0.00000000      54.93804400       49        5
Mn       0.00000000      12.60000000       1.80000000      54.93804400       50        5
Co       1.80000000      10.80000000       1.80000000      58.93319400       51        1
Mn       1.80000000      12.60000000       0.00000000      54.93804400       52        5
Mn       0.00000000      10.80000000       3.60000000      54.93804400       53        5
Co       0.00000000      12.60000000       5.40000000      58.93319400       54        1
Co       1.80000000      10.80000000       5.40000000      58.93319400       55        1
Ni       1.80000000      12.60000000       3.60000000      58.69340000       56        2
Ni       0.00000000      10.80000000       7.20000000      58.69340000       57        2
Mn       0.00000000      12.60000000       9.00000000      54.93804400       58        5
Ni       1.80000000      10.80000000       9.00000000      58.69340000       59        2
Co       1.80000000      12.60000000       7.20000000      58.93319400       60        1
Fe       0.00000000      10.80000000      10.80000000      55.84500000       61        4
Fe       0.00000000      12.60000000      12.60000000      55.84500000       62        4
Fe       1.80000000      10.80000000      12.60000000      55.84500000       63        4
Fe       1.80000000      12.60000000      10.80000000      55.84500000       64        4
Ni       3.60000000       0.00000000       0.00000000      58.69340000       65        2
Co       3.60000000       1.80000000       1.80000000      58.93319400       66        1
Mn       5.40000000       0.00000000       1.80000000      54.93804400       67        5
Cr       5.40000000       1.80000000       0.00000000      51.99610000       68        3
Ni       3.60000000       0.00000000       3.60000000      58.69340000       69        2
Mn       3.60000000       1.80000000       5.40000000      54.93804400       70        5
Fe       5.40000000       0.00000000       5.40000000      55.84500000       71        4
Mn       5.40000000       1.80000000       3.60000000      54.93804400       72        5
Ni       3.60000000       0.00000000       7.20000000      58.69340000       73        2
Cr       3.60000000       1.80000000       9.00000000      51.99610000       74        3
Co       5.40000000       0.00000000       9.00000000      58.93319400       75        1
Mn       5.40000000       1.80000000       7.20000000      54.93804400       76        5
Cr       3.60000000       0.00000000      10.80000000      51.99610000       77        3
Cr       3.60000000       1.80000000      12.60000000      51.99610000       78        3
Cr       5.40000000       0.00000000      12.60000000      51.99610000       79        3
Cr       5.40000000       1.80000000      10.80000000      51.99610000       80        3
Cr       3.60000000       3.60000000       0.00000000      51.99610000       81        3
Cr       3.60000000       5.40000000       1.80000000      51.99610000       82        3
Cr       5.40000000       3.60000000       1.80000000      51.99610000       83        3
Cr       5.40000000       5.40000000       0.00000000      51.99610000       84        3
Co       3.60000000       3.60000000       3.60000000      58.93319400       85        1
Cr       3.60000000       5.40000000       5.40000000      51.99610000       86        3
Cr       5.40000000       3.60000000       5.40000000      51.99610000       87        3
Cr       5.40000000       5.40000000       3.60000000      51.99610000       88        3
Co       3.60000000       3.60000000       7.20000000      58.93319400       89        1
Ni       3.60000000       5.40000000       9.00000000      58.69340000       90        2
Mn       5.40000000       3.60000000       9.00000000      54.93804400       91        5
Co       5.40000000       5.40000000       7.20000000      58.93319400       92        1
Cr       3.60000000       3.60000000      10.80000000      51.99610000       93        3
Ni       3.60000000       5.40000000      12.60000000      58.69340000       94        2
Cr       5.40000000       3.60000000      12.60000000      51.99610000       95        3
Mn       5.40000000       5.40000000      10.80000000      54.93804400       96        5
Co       3.60000000       7.20000000       0.00000000      58.93319400       97        1
Ni       3.60000000       9.00000000       1.80000000      58.69340000       98        2
Cr       5.40000000       7.20000000       1.80000000      51.99610000       99        3
Co       5.40000000       9.00000000       0.00000000      58.93319400      100        1
Cr       3.60000000       7.20000000       3.60000000      51.99610000      101        3
Co       3.60000000       9.00000000       5.40000000      58.93319400      102        1
Cr       5.40000000       7.20000000       5.40000000      51.99610000      103        3
Co       5.40000000       9.00000000       3.60000000      58.93319400      104        1
Ni       3.60000000       7.20000000       7.20000000      58.69340000      105        2
Ni       3.60000000       9.00000000       9.00000000      58.69340000      106        2
Ni       5.40000000       7.20000000       9.00000000      58.69340000      107        2
Co       5.40000000       9.00000000       7.20000000      58.93319400      108        1
Co       3.60000000       7.20000000      10.80000000      58.93319400      109        1
Ni       3.60000000       9.00000000      12.60000000      58.69340000      110        2
Mn       5.40000000       7.20000000      12.60000000      54.93804400      111        5
Mn       5.40000000       9.00000000      10.80000000      54.93804400      112        5
Ni       3.60000000      10.80000000       0.00000000      58.69340000      113        2
Co       3.60000000      12.60000000       1.80000000      58.93319400      114        1
Ni       5.40000000      10.80000000       1.80000000      58.69340000      115        2
Co       5.40000000      12.60000000       0.00000000      58.93319400      116        1
Co       3.60000000      10.80000000       3.60000000      58.93319400      117        1
Ni       3.60000000      12.60000000       5.40000000      58.69340000      118        2
Mn       5.40000000      10.80000000       5.40000000      54.93804400      119        5
Mn       5.40000000      12.60000000       3.60000000      54.93804400      120        5
Ni       3.60000000      10.80000000       7.20000000      58.69340000      121        2
Cr       3.60000000      12.60000000       9.00000000      51.99610000      122        3
Ni       5.40000000      10.80000000       9.00000000      58.69340000      123        2
Mn       5.40000000      12.60000000       7.20000000      54.93804400      124        5
Co       3.60000000      10.80000000      10.80000000      58.93319400      125        1
Mn       3.60000000      12.60000000      12.60000000      54.93804400      126        5
Mn       5.40000000      10.80000000      12.60000000      54.93804400      127        5
Cr       5.40000000      12.60000000      10.80000000      51.99610000      128        3
Mn       7.20000000       0.00000000       0.00000000      54.93804400      129        5
Cr       7.20000000       1.80000000       1.80000000      51.99610000      130        3
Mn       9.00000000       0.00000000       1.80000000      54.93804400      131        5
Fe       9.00000000       1.80000000       0.00000000      55.84500000      132        4
Fe       7.20000000       0.00000000       3.60000000      55.84500000      133        4
Mn       7.20000000       1.80000000       5.40000000      54.93804400      134        5
Fe       9.00000000       0.00000000       5.40000000      55.84500000      135        4
Mn       9.00000000       1.80000000       3.60000000      54.93804400      136        5
Fe       7.20000000       0.00000000       7.20000000      55.84500000      137        4
Ni       7.20000000       1.80000000       9.00000000      58.69340000      138        2
Fe       9.00000000       0.00000000       9.00000000      55.84500000      139        4
Mn       9.00000000       1.80000000       7.20000000      54.93804400      140        5
Mn       7.20000000       0.00000000      10.80000000      54.93804400      141        5
Cr       7.20000000       1.80000000      12.60000000      51.99610000      142        3
Mn       9.00000000       0.00000000      12.60000000      54.93804400      143        5
Co       9.00000000       1.80000000      10.80000000      58.93319400      144        1
Cr       7.20000000       3.60000000       0.00000000      51.99610000      145        3
Cr       7.20000000       5.40000000       1.80000000      51.99610000      146        3
Cr       9.00000000       3.60000000       1.80000000      51.99610000      147        3
Cr       9.00000000       5.40000000       0.00000000      51.99610000      148        3
Cr       7.20000000       3.60000000       3.60000000      51.99610000      149        3
Cr       7.20000000       5.40000000       5.40000000      51.99610000      150        3
Cr       9.00000000       3.60000000       5.40000000      51.99610000      151        3
Cr       9.00000000       5.40000000       3.60000000      51.99610000      152        3
Fe       7.20000000       3.60000000       7.20000000      55.84500000      153        4
Mn       7.20000000       5.40000000       9.00000000      54.93804400      154        5
Ni       9.00000000       3.60000000       9.00000000      58.69340000      155        2
Ni       9.00000000       5.40000000       7.20000000      58.69340000      156        2
Mn       7.20000000       3.60000000      10.80000000      54.93804400      157        5
Fe       7.20000000       5.40000000      12.60000000      55.84500000      158        4
Cr       9.00000000       3.60000000      12.60000000      51.99610000      159        3
Mn       9.00000000       5.40000000      10.80000000      54.93804400      160        5
Ni       7.20000000       7.20000000       0.00000000      58.69340000      161        2
Mn       7.20000000       9.00000000       1.80000000      54.93804400      162        5
Cr       9.00000000       7.20000000       1.80000000      51.99610000      163        3
Mn       9.00000000       9.00000000       0.00000000      54.93804400      164        5
Cr       7.20000000       7.20000000       3.60000000      51.99610000      165        3
Mn       7.20000000       9.00000000       5.40000000      54.93804400      166        5
Co       9.00000000       7.20000000       5.40000000      58.93319400      167        1
Co       9.00000000       9.00000000       3.60000000      58.93319400      168        1
Ni       7.20000000       7.20000000       7.20000000      58.69340000      169        2
Mn       7.20000000       9.00000000       9.00000000      54.93804400      170        5
Fe       9.00000000       7.20000000       9.00000000      55.84500000      171        4
Fe       9.00000000       9.00000000       7.20000000      55.84500000      172        4
Fe       7.20000000       7.20000000      10.80000000      55.84500000      173        4
Fe       7.20000000       9.00000000      12.60000000      55.84500000      174        4
Fe       9.00000000       7.20000000      12.60000000      55.84500000      175        4
Mn       9.00000000       9.00000000      10.80000000      54.93804400      176        5
Mn       7.20000000      10.80000000       0.00000000      54.93804400      177        5
Fe       7.20000000      12.60000000       1.80000000      55.84500000      178        4
Fe       9.00000000      10.80000000       1.80000000      55.84500000      179        4
Fe       9.00000000      12.60000000       0.00000000      55.84500000      180        4
Fe       7.20000000      10.80000000       3.60000000      55.84500000      181        4
Fe       7.20000000      12.60000000       5.40000000      55.84500000      182        4
Fe       9.00000000      10.80000000       5.40000000      55.84500000      183        4
Fe       9.00000000      12.60000000       3.60000000      55.84500000      184        4
Fe       7.20000000      10.80000000       7.20000000      55.84500000      185        4
Fe       7.20000000      12.60000000       9.00000000      55.84500000      186        4
Fe       9.00000000      10.80000000       9.00000000      55.84500000      187        4
Fe       9.00000000      12.60000000       7.20000000      55.84500000      188        4
Fe       7.20000000      10.80000000      10.80000000      55.84500000      189        4
Fe       7.20000000      12.60000000      12.60000000      55.84500000      190        4
Fe       9.00000000      10.80000000      12.60000000      55.84500000      191        4
Fe       9.00000000      12.60000000      10.80000000      55.84500000      192        4
Fe      10.80000000       0.00000000       0.00000000      55.84500000      193        4
Fe      10.80000000       1.80000000       1.80000000      55.84500000      194        4
Fe      12.60000000       0.00000000       1.80000000      55.84500000      195        4
Fe      12.60000000       1.80000000       0.00000000      55.84500000      196        4
Fe      10.80000000       0.00000000       3.60000000      55.84500000      197        4
Mn      10.80000000       1.80000000       5.40000000      54.93804400      198        5
Co      12.60000000       0.00000000       5.40000000      58.93319400      199        1
Mn      12.60000000       1.80000000       3.60000000      54.93804400      200        5
Mn      10.80000000       0.00000000       7.20000000      54.93804400      201        5
Ni      10.80000000       1.80000000       9.00000000      58.69340000      202        2
Co      12.60000000       0.00000000       9.00000000      58.93319400      203        1
Ni      12.60000000       1.80000000       7.20000000      58.69340000      204        2
Fe      10.80000000       0.00000000      10.80000000      55.84500000      205        4
Mn      10.80000000       1.80000000      12.60000000      54.93804400      206        5
Fe      12.60000000       0.00000000      12.60000000      55.84500000      207        4
Mn      12.60000000       1.80000000      10.80000000      54.93804400      208        5
Co      10.80000000       3.60000000       0.00000000      58.93319400      209        1
Cr      10.80000000       5.40000000       1.80000000      51.99610000      210        3
Co      12.60000000       3.60000000       1.80000000      58.93319400      211        1
Cr      12.60000000       5.40000000       0.00000000      51.99610000      212        3
Cr      10.80000000       3.60000000       3.60000000      51.99610000      213        3
Cr      10.80000000       5.40000000       5.40000000      51.99610000      214        3
Co      12.60000000       3.60000000       5.40000000      58.93319400      215        1
Cr      12.60000000       5.40000000       3.60000000      51.99610000      216        3
Co      10.80000000       3.60000000       7.20000000      58.93319400      217        1
Ni      10.80000000       5.40000000       9.00000000      58.69340000      218        2
Ni      12.60000000       3.60000000       9.00000000      58.69340000      219        2
Ni      12.60000000       5.40000000       7.20000000      58.69340000      220        2
Co      10.80000000       3.60000000      10.80000000      58.93319400      221        1
Cr      10.80000000       5.40000000      12.60000000      51.99610000      222        3
Ni      12.60000000       3.60000000      12.60000000      58.69340000      223        2
Co      12.60000000       5.40000000      10.80000000      58.93319400      224        1
Cr      10.80000000       7.20000000       0.00000000      51.99610000      225        3
Fe      10.80000000       9.00000000       1.80000000      55.84500000      226        4
Mn      12.60000000       7.20000000       1.80000000      54.93804400      227        5
Fe      12.60000000       9.00000000       0.00000000      55.84500000      228        4
Cr      10.80000000       7.20000000       3.60000000      51.99610000      229        3
Ni      10.80000000       9.00000000       5.40000000      58.69340000      230        2
Co      12.60000000       7.20000000       5.40000000      58.93319400      231        1
Co      12.60000000       9.00000000       3.60000000      58.93319400      232        1
Co      10.80000000       7.20000000       7.20000000      58.93319400      233        1
Fe      10.80000000       9.00000000       9.00000000      55.84500000      234        4
Ni      12.60000000       7.20000000       9.00000000      58.69340000      235        2
Co      12.60000000       9.00000000       7.20000000      58.93319400      236        1
Fe      10.80000000       7.20000000      10.80000000      55.84500000      237        4
Fe      10.80000000       9.00000000      12.60000000      55.84500000      238        4
Mn      12.60000000       7.20000000      12.60000000      54.93804400      239        5
Mn      12.60000000       9.00000000      10.80000000      54.93804400      240        5
Fe      10.80000000      10.80000000       0.00000000      55.84500000      241        4
Fe      10.80000000      12.60000000       1.80000000      55.84500000      242        4
Fe      12.60000000      10.80000000       1.80000000      55.84500000      243        4
Mn      12.60000000      12.60000000       0.00000000      54.93804400      244        5
Mn      10.80000000      10.80000000       3.60000000      54.93804400      245        5
Mn      10.80000000      12.60000000       5.40000000      54.93804400      246        5
Co      12.60000000      10.80000000       5.40000000      58.93319400      247        1
Fe      12.60000000      12.60000000       3.60000000      55.84500000      248        4
Mn      10.80000000      10.80000000       7.20000000      54.93804400      249        5
Mn      10.80000000      12.60000000       9.00000000      54.93804400      250        5
Ni      12.60000000      10.80000000       9.00000000      58.69340000      251        2
Ni      12.60000000      12.60000000       7.20000000      58.69340000      252        2
Mn      10.80000000      10.80000000      10.80000000      54.93804400      253        5
Fe      10.80000000      12.60000000      12.60000000      55.84500000      254        4
Fe      12.60000000      10.80000000      12.60000000      55.84500000      255        4
Mn      12.60000000      12.60000000      10.80000000      54.93804400      256        5
