256
Lattice="14.4 0.0 0.0 0.0 14.4 0.0 0.0 0.0 14.4" Properties=species:S:1:pos:R:3:masses:R:1:id:I:1:type:I:1 comment="(written by ASE)" energy=-1021.39734021929 pbc="T T T"
Ni       0.00000000       0.00000000       0.00000000      58.69340000        1        2
Cr       0.00000000       1.80000000       1.80000000      51.99610000        2        3
Co       1.80000000       0.00000000       1.80000000      58.93319400        3        1
Fe       1.80000000       1.80000000       0.00000000      55.84500000        4        4
Ni       0.00000000       0.00000000       3.60000000      58.69340000        5        2
Mn       0.00000000       1.80000000       5.40000000      54.93804400        6        5
Co       1.80000000       0.00000000       5.40000000      58.93319400        7        1
Co       1.80000000       1.80000000       3.60000000      58.93319400        8        1
Cr       0.00000000       0.00000000       7.20000000      51.99610000        9        3
Mn       0.00000000       1.80000000       9.00000000      54.93804400       10        5
Mn       1.80000000       0.00000000       9.00000000      54.93804400       11        5
Mn       1.80000000       1.80000000       7.20000000      54.93804400       12        5
Cr       0.00000000       0.00000000      10.80000000      51.99610000       13        3
Cr       0.00000000       1.80000000      12.60000000      51.99610000       14        3
Mn       1.80000000       0.00000000      12.60000000      54.93804400       15        5
Fe       1.80000000       1.80000000      10.80000000      55.84500000       16        4
Mn       0.00000000       3.60000000       0.00000000      54.93804400       17        5
Mn       0.00000000       5.40000000       1.80000000      54.93804400       18        5
Co       1.80000000       3.60000000       1.80000000      58.93319400       19        1
Cr       1.80000000       5.40000000       0.00000000      51.99610000       20        3
Fe       0.00000000       3.60000000       3.60000000      55.84500000       21        4
Mn       0.00000000       5.40000000       5.40000000      54.93804400       22        5
Cr       1.80000000       3.60000000       5.40000000      51.99610000       23        3
Mn       1.80000000       5.40000000       3.60000000      54.93804400       24        5
Fe       0.00000000       3.60000000       7.20000000      55.84500000       25        4
Mn       0.00000000       5.40000000       9.00000000      54.93804400       26        5
Cr       1.80000000       3.60000000       9.00000000      51.99610000       27        3
Mn       1.80000000       5.40000000       7.20000000      54.93804400       28        5
Fe       0.00000000       3.60000000      10.80000000      55.84500000       29        4
Fe       0.00000000       5.40000000      12.60000000      55.84500000       30        4
Mn       1.80000000       3.60000000      12.60000000      54.93804400       31        5
Ni       1.80000000       5.40000000      10.80000000      58.69340000       32        2
Co       0.00000000       7.20000000       0.00000000      58.93319400       33        1
Co       0.00000000       9.00000000       1.80000000      58.93319400       34        1
Fe       1.80000000       7.20000000       1.80000000      55.84500000       35        4
Ni       1.80000000       9.00000000       0.00000000      58.69340000       36        2
Co       0.00000000       7.20000000       3.60000000      58.93319400       37        1
Fe       0.00000000       9.00000000       5.40000000      55.84500000       38        4
Cr       1.80000000       7.20000000       5.40000000      51.99610000       39        3
Mn       1.80000000       9.00000000       3.60000000      54.93804400       40        5
Fe       0.00000000       7.20000000       7.20000000      55.84500000       41        4
Fe       0.00000000       9.00000000       9.00000000      55.84500000       42        4
Cr       1.80000000       7.20000000       9.00000000      51.99610000       43        3
Mn       1.80000000       9.00000000       7.20000000      54.93804400       44        5
Mn       0.00000000       7.20000000      10.80000000      54.93804400       45        5
Fe       0.00000000       9.00000000      12.60000000      55.84500000       46        4
Ni       1.80000000       7.20000000      12.60000000      58.69340000       47        2
Mn       1.80000000       9.00000000      10.80000000      54.93804400       48        5
Ni       0.00000000      10.80000000       0.00000000      58.69340000       49        2
Ni       0.00000000      12.60000000       1.80000000      58.69340000       50        2
Fe       1.80000000      10.80000000       1.80000000      55.84500000       51        4
Cr       1.80000000      12.60000000       0.00000000      51.99610000       52        3
Cr       0.00000000      10.80000000       3.60000000      51.99610000       53        3
Fe       0.00000000      12.60000000       5.40000000      55.84500000       54        4
Co       1.80000000      10.80000000       5.40000000      58.93319400       55        1
Cr       1.80000000      12.60000000       3.60000000      51.99610000       56        3
Cr       0.00000000      10.80000000       7.20000000      51.99610000       57        3
Fe       0.00000000      12.60000000       9.00000000      55.84500000       58        4
Co       1.80000000      10.80000000       9.00000000      58.93319400       59        1
Mn       1.80000000      12.60000000       7.20000000      54.93804400       60        5
Mn       0.00000000      10.80000000      10.80000000      54.93804400       61        5
Fe       0.00000000      12.60000000      12.60000000      55.84500000       62        4
Cr       1.80000000      10.80000000      12.60000000      51.99610000       63        3
Co       1.80000000      12.60000000      10.80000000      58.93319400       64        1
Co       3.60000000       0.00000000       0.00000000      58.93319400       65        1
Mn       3.60000000       1.80000000       1.80000000      54.93804400       66        5
Co       5.40000000       0.00000000       1.80000000      58.93319400       67        1
Mn       5.40000000       1.80000000       0.00000000      54.93804400       68        5
Mn       3.60000000       0.00000000       3.60000000      54.93804400       69        5
Co       3.60000000       1.80000000       5.40000000      58.93319400       70        1
Fe       5.40000000       0.00000000       5.40000000      55.84500000       71        4
Cr       5.40000000       1.80000000       3.60000000      51.99610000       72        3
Co       3.60000000       0.00000000       7.20000000      58.93319400       73        1
Co       3.60000000       1.80000000       9.00000000      58.93319400       74        1
Mn       5.40000000       0.00000000       9.00000000      54.93804400       75        5
Mn       5.40000000       1.80000000       7.20000000      54.93804400       76        5
Co       3.60000000       0.00000000      10.80000000      58.93319400       77        1
Co       3.60000000       1.80000000      12.60000000      58.93319400       78        1
Co       5.40000000       0.00000000      12.60000000      58.93319400       79        1
Co       5.40000000       1.80000000      10.80000000      58.93319400       80        1
Fe       3.60000000       3.60000000       0.00000000      55.84500000       81        4
Ni       3.60000000       5.40000000       1.80000000      58.69340000       82        2
Ni       5.40000000       3.60000000       1.80000000      58.69340000       83        2
Ni       5.40000000       5.40000000       0.00000000      58.69340000       84        2
Fe       3.60000000       3.60000000       3.60000000      55.84500000       85        4
Fe       3.60000000       5.40000000       5.40000000      55.84500000       86        4
Mn       5.40000000       3.60000000       5.40000000      54.93804400       87        5
Ni       5.40000000       5.40000000       3.60000000      58.69340000       88        2
Fe       3.60000000       3.60000000       7.20000000      55.84500000       89        4
Ni       3.60000000       5.40000000       9.00000000      58.69340000       90        2
Co       5.40000000       3.60000000       9.00000000      58.93319400       91        1
Mn       5.40000000       5.40000000       7.20000000      54.93804400       92        5
Fe       3.60000000       3.60000000      10.80000000      55.84500000       93        4
Ni       3.60000000       5.40000000      12.60000000      58.69340000       94        2
Mn       5.40000000       3.60000000      12.60000000      54.93804400       95        5
Ni       5.40000000       5.40000000      10.80000000      58.69340000       96        2
Ni       3.60000000       7.20000000       0.00000000      58.69340000       97        2
Ni       3.60000000       9.00000000       1.80000000      58.69340000       98        2
Ni       5.40000000       7.20000000       1.80000000      58.69340000       99        2
Ni       5.40000000       9.00000000       0.00000000      58.69340000      100        2
Ni       3.60000000       7.20000000       3.60000000      58.69340000      101        2
Mn       3.60000000       9.00000000       5.40000000      54.93804400      102        5
Cr       5.40000000       7.20000000       5.40000000      51.99610000      103        3
Fe       5.40000000       9.00000000       3.60000000      55.84500000      104        4
Fe       3.60000000       7.20000000       7.20000000      55.84500000      105        4
Ni       3.60000000       9.00000000       9.00000000      58.69340000      106        2
Ni       5.40000000       7.20000000       9.00000000      58.69340000      107        2
Cr       5.40000000       9.00000000       7.20000000      51.99610000      108        3
Ni       3.60000000       7.20000000      10.80000000      58.69340000      109        2
Ni       3.60000000       9.00000000      12.60000000      58.69340000      110        2
Ni       5.40000000       7.20000000      12.60000000      58.69340000      111        2
Ni       5.40000000       9.00000000      10.80000000      58.69340000      112        2
Mn       3.60000000      10.80000000       0.00000000      54.93804400      113        5
Mn       3.60000000      12.60000000       1.80000000      54.93804400      114        5
Cr       5.40000000      10.80000000       1.80000000      51.99610000      115        3
Fe       5.40000000      12.60000000       0.00000000      55.84500000      116        4
Mn       3.60000000      10.80000000       3.60000000      54.93804400      117        5
Co       3.60000000      12.60000000       5.40000000      58.93319400      118        1
Fe       5.40000000      10.80000000       5.40000000      55.84500000      119        4
Co       5.40000000      12.60000000       3.60000000      58.93319400      120        1
Co       3.60000000      10.80000000       7.20000000      58.93319400      121        1
Cr       3.60000000      12.60000000       9.00000000      51.99610000      122        3
Mn       5.40000000      10.80000000       9.00000000      54.93804400      123        5
Co       5.40000000      12.60000000       7.20000000      58.93319400      124        1
Fe       3.60000000      10.80000000      10.80000000      55.84500000      125        4
Mn       3.60000000      12.60000000      12.60000000      54.93804400      126        5
Cr       5.40000000      10.80000000      12.60000000      51.99610000      127        3
Fe       5.40000000      12.60000000      10.80000000      55.84500000      128        4
Co       7.20000000       0.00000000       0.00000000      58.93319400      129        1
Fe       7.20000000       1.80000000       1.80000000      55.84500000      130        4
Cr       9.00000000       0.00000000       1.80000000      51.99610000      131        3
Mn       9.00000000       1.80000000       0.00000000      54.93804400      132        5
Mn       7.20000000       0.00000000       3.60000000      54.93804400      133        5
Cr       7.20000000       1.80000000       5.40000000      51.99610000      134        3
Fe       9.00000000       0.00000000       5.40000000      55.84500000      135        4
Mn       9.00000000       1.80000000       3.60000000      54.93804400      136        5
Co       7.20000000       0.00000000       7.20000000      58.93319400      137        1
Co       7.20000000       1.80000000       9.00000000      58.93319400      138        1
Fe       9.00000000       0.00000000       9.00000000      55.84500000      139        4
Mn       9.00000000       1.80000000       7.20000000      54.93804400      140        5
Cr       7.20000000       0.00000000      10.80000000      51.99610000      141        3
Fe       7.20000000       1.80000000      12.60000000      55.84500000      142        4
Cr       9.00000000       0.00000000      12.60000000      51.99610000      143        3
Mn       9.00000000       1.80000000      10.80000000      54.93804400      144        5
Cr       7.20000000       3.60000000       0.00000000      51.99610000      145        3
Ni       7.20000000       5.40000000       1.80000000      58.69340000      146        2
Cr       9.00000000       3.60000000       1.80000000      51.99610000      147        3
Fe       9.00000000       5.40000000       0.00000000      55.84500000      148        4
Fe       7.20000000       3.60000000       3.60000000      55.84500000      149        4
Cr       7.20000000       5.40000000       5.40000000      51.99610000      150        3
Co       9.00000000       3.60000000       5.40000000      58.93319400      151        1
Mn       9.00000000       5.40000000       3.60000000      54.93804400      152        5
Fe       7.20000000       3.60000000       7.20000000      55.84500000      153        4
Cr       7.20000000       5.40000000       9.00000000      51.99610000      154        3
Co       9.00000000       3.60000000       9.00000000      58.93319400      155        1
Mn       9.00000000       5.40000000       7.20000000      54.93804400      156        5
Mn       7.20000000       3.60000000      10.80000000      54.93804400      157        5
Fe       7.20000000       5.40000000      12.60000000      55.84500000      158        4
Cr       9.00000000       3.60000000      12.60000000      51.99610000      159        3
Co       9.00000000       5.40000000      10.80000000      58.93319400      160        1
Ni       7.20000000       7.20000000       0.00000000      58.69340000      161        2
Fe       7.20000000       9.00000000       1.80000000      55.84500000      162        4
Cr       9.00000000       7.20000000       1.80000000      51.99610000      163        3
Ni       9.00000000       9.00000000       0.00000000      58.69340000      164        2
Ni       7.20000000       7.20000000       3.60000000      58.69340000      165        2
Co       7.20000000       9.00000000       5.40000000      58.93319400      166        1
Co       9.00000000       7.20000000       5.40000000      58.93319400      167        1
Mn       9.00000000       9.00000000       3.60000000      54.93804400      168        5
Fe       7.20000000       7.20000000       7.20000000      55.84500000      169        4
Fe       7.20000000       9.00000000       9.00000000      55.84500000      170        4
Mn       9.00000000       7.20000000       9.00000000      54.93804400      171        5
Cr       9.00000000       9.00000000       7.20000000      51.99610000      172        3
Cr       7.20000000       7.20000000      10.80000000      51.99610000      173        3
Ni       7.20000000       9.00000000      12.60000000      58.69340000      174        2
Mn       9.00000000       7.20000000      12.60000000      54.93804400      175        5
Co       9.00000000       9.00000000      10.80000000      58.93319400      176        1
Mn       7.20000000      10.80000000       0.00000000      54.93804400      177        5
Co       7.20000000      12.60000000       1.80000000      58.93319400      178        1
Cr       9.00000000      10.80000000       1.80000000      51.99610000      179        3
Fe       9.00000000      12.60000000       0.00000000      55.84500000      180        4
Mn       7.20000000      10.80000000       3.60000000      54.93804400      181        5
Cr       7.20000000      12.60000000       5.40000000      51.99610000      182        3
Fe       9.00000000      10.80000000       5.40000000      55.84500000      183        4
Mn       9.00000000      12.60000000       3.60000000      54.93804400      184        5
Mn       7.20000000      10.80000000       7.20000000      54.93804400      185        5
Co       7.20000000      12.60000000       9.00000000      58.93319400      186        1
Mn       9.00000000      10.80000000       9.00000000      54.93804400      187        5
Co       9.00000000      12.60000000       7.20000000      58.93319400      188        1
Cr       7.20000000      10.80000000      10.80000000      51.99610000      189        3
Mn       7.20000000      12.60000000      12.60000000      54.93804400      190        5
Ni       9.00000000      10.80000000      12.60000000      58.69340000      191        2
Ni       9.00000000      12.60000000      10.80000000      58.69340000      192        2
Ni      10.80000000       0.00000000       0.00000000      58.69340000      193        2
Fe      10.80000000       1.80000000       1.80000000      55.84500000      194        4
Ni      12.60000000       0.00000000       1.80000000      58.69340000      195        2
Fe      12.60000000       1.80000000       0.00000000      55.84500000      196        4
Fe      10.80000000       0.00000000       3.60000000      55.84500000      197        4
Co      10.80000000       1.80000000       5.40000000      58.93319400      198        1
Cr      12.60000000       0.00000000       5.40000000      51.99610000      199        3
Mn      12.60000000       1.80000000       3.60000000      54.93804400      200        5
Mn      10.80000000       0.00000000       7.20000000      54.93804400      201        5
Co      10.80000000       1.80000000       9.00000000      58.93319400      202        1
Fe      12.60000000       0.00000000       9.00000000      55.84500000      203        4
Co      12.60000000       1.80000000       7.20000000      58.93319400      204        1
Cr      10.80000000       0.00000000      10.80000000      51.99610000      205        3
Fe      10.80000000       1.80000000      12.60000000      55.84500000      206        4
Ni      12.60000000       0.00000000      12.60000000      58.69340000      207        2
Mn      12.60000000       1.80000000      10.80000000      54.93804400      208        5
Mn      10.80000000       3.60000000       0.00000000      54.93804400      209        5
Mn      10.80000000       5.40000000       1.80000000      54.93804400      210        5
Cr      12.60000000       3.60000000       1.80000000      51.99610000      211        3
Cr      12.60000000       5.40000000       0.00000000      51.99610000      212        3
Co      10.80000000       3.60000000       3.60000000      58.93319400      213        1
Mn      10.80000000       5.40000000       5.40000000      54.93804400      214        5
Cr      12.60000000       3.60000000       5.40000000      51.99610000      215        3
Fe      12.60000000       5.40000000       3.60000000      55.84500000      216        4
Fe      10.80000000       3.60000000       7.20000000      55.84500000      217        4
Mn      10.80000000       5.40000000       9.00000000      54.93804400      218        5
Co      12.60000000       3.60000000       9.00000000      58.93319400      219        1
Co      12.60000000       5.40000000       7.20000000      58.93319400      220        1
Co      10.80000000       3.60000000      10.80000000      58.93319400      221        1
Fe      10.80000000       5.40000000      12.60000000      55.84500000      222        4
Co      12.60000000       3.60000000      12.60000000      58.93319400      223        1
Cr      12.60000000       5.40000000      10.80000000      51.99610000      224        3
Mn      10.80000000       7.20000000       0.00000000      54.93804400      225        5
Fe      10.80000000       9.00000000       1.80000000      55.84500000      226        4
Co      12.60000000       7.20000000       1.80000000      58.93319400      227        1
Cr      12.60000000       9.00000000       0.00000000      51.99610000      228        3
Co      10.80000000       7.20000000       3.60000000      58.93319400      229        1
Co      10.80000000       9.00000000       5.40000000      58.93319400      230        1
Cr      12.60000000       7.20000000       5.40000000      51.99610000      231        3
Mn      12.60000000       9.00000000       3.60000000      54.93804400      232        5
Fe      10.80000000       7.20000000       7.20000000      55.84500000      233        4
Fe      10.80000000       9.00000000       9.00000000      55.84500000      234        4
Mn      12.60000000       7.20000000       9.00000000      54.93804400      235        5
Cr      12.60000000       9.00000000       7.20000000      51.99610000      236        3
Co      10.80000000       7.20000000      10.80000000      58.93319400      237        1
Fe      10.80000000       9.00000000      12.60000000      55.84500000      238        4
Mn      12.60000000       7.20000000      12.60000000      54.93804400      239        5
Cr      12.60000000       9.00000000      10.80000000      51.99610000      240        3
Ni      10.80000000      10.80000000       0.00000000      58.69340000      241        2
Ni      10.80000000      12.60000000       1.80000000      58.69340000      242        2
Ni      12.60000000      10.80000000       1.80000000      58.69340000      243        2
Ni      12.60000000      12.60000000       0.00000000      58.69340000      244        2
Cr      10.80000000      10.80000000       3.60000000      51.99610000      245        3
Cr      10.80000000      12.60000000       5.40000000      51.99610000      246        3
Mn      12.60000000      10.80000000       5.40000000      54.93804400      247        5
Ni      12.60000000      12.60000000       3.60000000      58.69340000      248        2
Co      10.80000000      10.80000000       7.20000000      58.93319400      249        1
Ni      10.80000000      12.60000000       9.00000000      58.69340000      250        2
Ni      12.60000000      10.80000000       9.00000000      58.69340000      251        2
Fe      12.60000000      12.60000000       7.20000000      55.84500000      252        4
Ni      10.80000000      10.80000000      10.80000000      58.69340000      253        2
Ni      10.80000000      12.60000000      12.60000000      58.69340000      254        2
Ni      12.60000000      10.80000000      12.60000000      58.69340000      255        2
Ni      12.60000000      12.60000000      10.80000000      58.69340000      256        2
