256
Lattice="14.4 0.0 0.0 0.0 14.4 0.0 0.0 0.0 14.4" Properties=species:S:1:pos:R:3:masses:R:1:id:I:1:type:I:1 comment="(written by ASE)" energy=-1024.01176774091 pbc="T T T"
Ni       0.00000000       0.00000000       0.00000000      58.69340000        1        2
Ni       0.00000000       1.80000000       1.80000000      58.69340000        2        2
Ni       1.80000000       0.00000000       1.80000000      58.69340000        3        2
Ni       1.80000000       1.80000000       0.00000000      58.69340000        4        2
Ni       0.00000000       0.00000000       3.60000000      58.69340000        5        2
Ni       0.00000000       1.80000000       5.40000000      58.69340000        6        2
Mn       1.80000000       0.00000000       5.40000000      54.93804400        7        5
Mn       1.80000000       1.80000000       3.60000000      54.93804400        8        5
Ni       0.00000000       0.00000000       7.20000000      58.69340000        9        2
Ni       0.00000000       1.80000000       9.00000000      58.69340000       10        2
Fe       1.80000000       0.00000000       9.00000000      55.84500000       11        4
Co       1.80000000       1.80000000       7.20000000      58.93319400       12        1
Ni       0.00000000       0.00000000      10.80000000      58.69340000       13        2
Ni       0.00000000       1.80000000      12.60000000      58.69340000       14        2
Ni       1.80000000       0.00000000      12.60000000      58.69340000       15        2
Ni       1.80000000       1.80000000      10.80000000      58.69340000       16        2
Mn       0.00000000       3.60000000       0.00000000      54.93804400       17        5
Fe       0.00000000       5.40000000       1.80000000      55.84500000       18        4
Mn       1.80000000       3.60000000       1.80000000      54.93804400       19        5
Fe       1.80000000       5.40000000       0.00000000      55.84500000       20        4
Mn       0.00000000       3.60000000       3.60000000      54.93804400       21        5
Co       0.00000000       5.40000000       5.40000000      58.93319400       22        1
Fe       1.80000000       3.60000000       5.40000000      55.84500000       23        4
Mn       1.80000000       5.40000000       3.60000000      54.93804400       24        5
Fe       0.00000000       3.60000000       7.20000000      55.84500000       25        4
Co       0.00000000       5.40000000       9.00000000      58.93319400       26        1
Fe       1.80000000       3.60000000       9.00000000      55.84500000       27        4
Fe       1.80000000       5.40000000       7.20000000      55.84500000       28        4
Fe       0.00000000       3.60000000      10.80000000      55.84500000       29        4
Ni       0.00000000       5.40000000      12.60000000      58.69340000       30        2
Ni       1.80000000       3.60000000      12.60000000      58.69340000       31        2
Fe       1.80000000       5.40000000      10.80000000      55.84500000       32        4
Mn       0.00000000       7.20000000       0.00000000      54.93804400       33        5
Mn       0.00000000       9.00000000       1.80000000      54.93804400       34        5
Cr       1.80000000       7.20000000       1.80000000      51.99610000       35        3
Fe       1.80000000       9.00000000       0.00000000      55.84500000       36        4
Fe       0.00000000       7.20000000       3.60000000      55.84500000       37        4
Cr       0.00000000       9.00000000       5.40000000      51.99610000       38        3
Cr       1.80000000       7.20000000       5.40000000      51.99610000       39        3
Cr       1.80000000       9.00000000       3.60000000      51.99610000       40        3
Fe       0.00000000       7.20000000       7.20000000      55.84500000       41        4
Co       0.00000000       9.00000000       9.00000000      58.93319400       42        1
Co       1.80000000       7.20000000       9.00000000      58.93319400       43        1
Cr       1.80000000       9.00000000       7.20000000      51.99610000       44        3
Fe       0.00000000       7.20000000      10.80000000      55.84500000       45        4
Mn       0.00000000       9.00000000      12.60000000      54.93804400       46        5
Co       1.80000000       7.20000000      12.60000000      58.93319400       47        1
Fe       1.80000000       9.00000000      10.80000000      55.84500000       48        4
Ni       0.00000000      10.80000000       0.00000000      58.69340000       49        2
Ni       0.00000000      12.60000000       1.80000000      58.69340000       50        2
Mn       1.80000000      10.80000000       1.80000000      54.93804400       51        5
Ni       1.80000000      12.60000000       0.00000000      58.69340000       52        2
Mn       0.00000000      10.80000000       3.60000000      54.93804400       53        5
Ni       0.00000000      12.60000000       5.40000000      58.69340000       54        2
Cr       1.80000000      10.80000000       5.40000000      51.99610000       55        3
Mn       1.80000000      12.60000000       3.60000000      54.93804400       56        5
Fe       0.00000000      10.80000000       7.20000000      55.84500000       57        4
Fe       0.00000000      12.60000000       9.00000000      55.84500000       58        4
Co       1.80000000      10.80000000       9.00000000      58.93319400       59        1
Mn       1.80000000      12.60000000       7.20000000      54.93804400       60        5
Fe       0.00000000      10.80000000      10.80000000      55.84500000       61        4
Ni       0.00000000      12.60000000      12.60000000      58.69340000       62        2
Fe       1.80000000      10.80000000      12.60000000      55.84500000       63        4
Co       1.80000000      12.60000000      10.80000000      58.93319400       64        1
Mn       3.60000000       0.00000000       0.00000000      54.93804400       65        5
Mn       3.60000000       1.80000000       1.80000000      54.93804400       66        5
Cr       5.40000000       0.00000000       1.80000000      51.99610000       67        3
Mn       5.40000000       1.80000000       0.00000000      54.93804400       68        5
Mn       3.60000000       0.00000000       3.60000000      54.93804400       69        5
Cr       3.60000000       1.80000000       5.40000000      51.99610000       70        3
Co       5.40000000       0.00000000       5.40000000      58.93319400       71        1
Cr       5.40000000       1.80000000       3.60000000      51.99610000       72        3
Fe       3.60000000       0.00000000       7.20000000      55.84500000       73        4
Co       3.60000000       1.80000000       9.00000000      58.93319400       74        1
Fe       5.40000000       0.00000000       9.00000000      55.84500000       75        4
Co       5.40000000       1.80000000       7.20000000      58.93319400       76        1
Co       3.60000000       0.00000000      10.80000000      58.93319400       77        1
Mn       3.60000000       1.80000000      12.60000000      54.93804400       78        5
Mn       5.40000000       0.00000000      12.60000000      54.93804400       79        5
Mn       5.40000000       1.80000000      10.80000000      54.93804400       80        5
Mn       3.60000000       3.60000000       0.00000000      54.93804400       81        5
Mn       3.60000000       5.40000000       1.80000000      54.93804400       82        5
Mn       5.40000000       3.60000000       1.80000000      54.93804400       83        5
Mn       5.40000000       5.40000000       0.00000000      54.93804400       84        5
Mn       3.60000000       3.60000000       3.60000000      54.93804400       85        5
Co       3.60000000       5.40000000       5.40000000      58.93319400       86        1
Cr       5.40000000       3.60000000       5.40000000      51.99610000       87        3
Mn       5.40000000       5.40000000       3.60000000      54.93804400       88        5
Co       3.60000000       3.60000000       7.20000000      58.93319400       89        1
Co       3.60000000       5.40000000       9.00000000      58.93319400       90        1
Fe       5.40000000       3.60000000       9.00000000      55.84500000       91        4
Fe       5.40000000       5.40000000       7.20000000      55.84500000       92        4
Ni       3.60000000       3.60000000      10.80000000      58.69340000       93        2
Ni       3.60000000       5.40000000      12.60000000      58.69340000       94        2
Mn       5.40000000       3.60000000      12.60000000      54.93804400       95        5
Ni       5.40000000       5.40000000      10.80000000      58.69340000       96        2
Fe       3.60000000       7.20000000       0.00000000      55.84500000       97        4
Cr       3.60000000       9.00000000       1.80000000      51.99610000       98        3
Mn       5.40000000       7.20000000       1.80000000      54.93804400       99        5
Cr       5.40000000       9.00000000       0.00000000      51.99610000      100        3
Cr       3.60000000       7.20000000       3.60000000      51.99610000      101        3
Cr       3.60000000       9.00000000       5.40000000      51.99610000      102        3
Cr       5.40000000       7.20000000       5.40000000      51.99610000      103        3
Cr       5.40000000       9.00000000       3.60000000      51.99610000      104        3
Co       3.60000000       7.20000000       7.20000000      58.93319400      105        1
Fe       3.60000000       9.00000000       9.00000000      55.84500000      106        4
Co       5.40000000       7.20000000       9.00000000      58.93319400      107        1
Cr       5.40000000       9.00000000       7.20000000      51.99610000      108        3
Ni       3.60000000       7.20000000      10.80000000      58.69340000      109        2
Co       3.60000000       9.00000000      12.60000000      58.93319400      110        1
Fe       5.40000000       7.20000000      12.60000000      55.84500000      111        4
Co       5.40000000       9.00000000      10.80000000      58.93319400      112        1
Co       3.60000000      10.80000000       0.00000000      58.93319400      113        1
Cr       3.60000000      12.60000000       1.80000000      51.99610000      114        3
Cr       5.40000000      10.80000000       1.80000000      51.99610000      115        3
Co       5.40000000      12.60000000       0.00000000      58.93319400      116        1
Cr       3.60000000      10.80000000       3.60000000      51.99610000      117        3
Cr       3.60000000      12.60000000       5.40000000      51.99610000      118        3
Cr       5.40000000      10.80000000       5.40000000      51.99610000      119        3
Cr       5.40000000      12.60000000       3.60000000      51.99610000      120        3
Cr       3.60000000      10.80000000       7.20000000      51.99610000      121        3
Cr       3.60000000      12.60000000       9.00000000      51.99610000      122        3
Cr       5.40000000      10.80000000       9.00000000      51.99610000      123        3
Cr       5.40000000      12.60000000       7.20000000      51.99610000      124        3
Co       3.60000000      10.80000000      10.80000000      58.93319400      125        1
Fe       3.60000000      12.60000000      12.60000000      55.84500000      126        4
Fe       5.40000000      10.80000000      12.60000000      55.84500000      127        4
Cr       5.40000000      12.60000000      10.80000000      51.99610000      128        3
Cr       7.20000000       0.00000000       0.00000000      51.99610000      129        3
Cr       7.20000000       1.80000000       1.80000000      51.99610000      130        3
Cr       9.00000000       0.00000000       1.80000000      51.99610000      131        3
Cr       9.00000000       1.80000000       0.00000000      51.99610000      132        3
Cr       7.20000000       0.00000000       3.60000000      51.99610000      133        3
Fe       7.20000000       1.80000000       5.40000000      55.84500000      134        4
Co       9.00000000       0.00000000       5.40000000      58.93319400      135        1
Co       9.00000000       1.80000000       3.60000000      58.93319400      136        1
Co       7.20000000       0.00000000       7.20000000      58.93319400      137        1
Co       7.20000000       1.80000000       9.00000000      58.93319400      138        1
Fe       9.00000000       0.00000000       9.00000000      55.84500000      139        4
Fe       9.00000000       1.80000000       7.20000000      55.84500000      140        4
Cr       7.20000000       0.00000000      10.80000000      51.99610000      141        3
Mn       7.20000000       1.80000000      12.60000000      54.93804400      142        5
Cr       9.00000000       0.00000000      12.60000000      51.99610000      143        3
Cr       9.00000000       1.80000000      10.80000000      51.99610000      144        3
Mn       7.20000000       3.60000000       0.00000000      54.93804400      145        5
Mn       7.20000000       5.40000000       1.80000000      54.93804400      146        5
Co       9.00000000       3.60000000       1.80000000      58.93319400      147        1
Mn       9.00000000       5.40000000       0.00000000      54.93804400      148        5
Cr       7.20000000       3.60000000       3.60000000      51.99610000      149        3
Cr       7.20000000       5.40000000       5.40000000      51.99610000      150        3
Co       9.00000000       3.60000000       5.40000000      58.93319400      151        1
Fe       9.00000000       5.40000000       3.60000000      55.84500000      152        4
Co       7.20000000       3.60000000       7.20000000      58.93319400      153        1
Fe       7.20000000       5.40000000       9.00000000      55.84500000      154        4
Co       9.00000000       3.60000000       9.00000000      58.93319400      155        1
Fe       9.00000000       5.40000000       7.20000000      55.84500000      156        4
Mn       7.20000000       3.60000000      10.80000000      54.93804400      157        5
Mn       7.20000000       5.40000000      12.60000000      54.93804400      158        5
Mn       9.00000000       3.60000000      12.60000000      54.93804400      159        5
Cr       9.00000000       5.40000000      10.80000000      51.99610000      160        3
Mn       7.20000000       7.20000000       0.00000000      54.93804400      161        5
Mn       7.20000000       9.00000000       1.80000000      54.93804400      162        5
Mn       9.00000000       7.20000000       1.80000000      54.93804400      163        5
Mn       9.00000000       9.00000000       0.00000000      54.93804400      164        5
Mn       7.20000000       7.20000000       3.60000000      54.93804400      165        5
Cr       7.20000000       9.00000000       5.40000000      51.99610000      166        3
Co       9.00000000       7.20000000       5.40000000      58.93319400      167        1
Fe       9.00000000       9.00000000       3.60000000      55.84500000      168        4
Cr       7.20000000       7.20000000       7.20000000      51.99610000      169        3
Co       7.20000000       9.00000000       9.00000000      58.93319400      170        1
Co       9.00000000       7.20000000       9.00000000      58.93319400      171        1
Co       9.00000000       9.00000000       7.20000000      58.93319400      172        1
Fe       7.20000000       7.20000000      10.80000000      55.84500000      173        4
Mn       7.20000000       9.00000000      12.60000000      54.93804400      174        5
Mn       9.00000000       7.20000000      12.60000000      54.93804400      175        5
Co       9.00000000       9.00000000      10.80000000      58.93319400      176        1
Cr       7.20000000      10.80000000       0.00000000      51.99610000      177        3
Cr       7.20000000      12.60000000       1.80000000      51.99610000      178        3
Ni       9.00000000      10.80000000       1.80000000      58.69340000      179        2
Mn       9.00000000      12.60000000       0.00000000      54.93804400      180        5
Co       7.20000000      10.80000000       3.60000000      58.93319400      181        1
Fe       7.20000000      12.60000000       5.40000000      55.84500000      182        4
Co       9.00000000      10.80000000       5.40000000      58.93319400      183        1
Mn       9.00000000      12.60000000       3.60000000      54.93804400      184        5
Cr       7.20000000      10.80000000       7.20000000      51.99610000      185        3
Co       7.20000000      12.60000000       9.00000000      58.93319400      186        1
Fe       9.00000000      10.80000000       9.00000000      55.84500000      187        4
Fe       9.00000000      12.60000000       7.20000000      55.84500000      188        4
Cr       7.20000000      10.80000000      10.80000000      51.99610000      189        3
Cr       7.20000000      12.60000000      12.60000000      51.99610000      190        3
Mn       9.00000000      10.80000000      12.60000000      54.93804400      191        5
Mn       9.00000000      12.60000000      10.80000000      54.93804400      192        5
Mn      10.80000000       0.00000000       0.00000000      54.93804400      193        5
Fe      10.80000000       1.80000000       1.80000000      55.84500000      194        4
Mn      12.60000000       0.00000000       1.80000000      54.93804400      195        5
Ni      12.60000000       1.80000000       0.00000000      58.69340000      196        2
Ni      10.80000000       0.00000000       3.60000000      58.69340000      197        2
Fe      10.80000000       1.80000000       5.40000000      55.84500000      198        4
Ni      12.60000000       0.00000000       5.40000000      58.69340000      199        2
Ni      12.60000000       1.80000000       3.60000000      58.69340000      200        2
Ni      10.80000000       0.00000000       7.20000000      58.69340000      201        2
Fe      10.80000000       1.80000000       9.00000000      55.84500000      202        4
Ni      12.60000000       0.00000000       9.00000000      58.69340000      203        2
Ni      12.60000000       1.80000000       7.20000000      58.69340000      204        2
Mn      10.80000000       0.00000000      10.80000000      54.93804400      205        5
Mn      10.80000000       1.80000000      12.60000000      54.93804400      206        5
Mn      12.60000000       0.00000000      12.60000000      54.93804400      207        5
Ni      12.60000000       1.80000000      10.80000000      58.69340000      208        2
Mn      10.80000000       3.60000000       0.00000000      54.93804400      209        5
Fe      10.80000000       5.40000000       1.80000000      55.84500000      210        4
Ni      12.60000000       3.60000000       1.80000000      58.69340000      211        2
Mn      12.60000000       5.40000000       0.00000000      54.93804400      212        5
Fe      10.80000000       3.60000000       3.60000000      55.84500000      213        4
Fe      10.80000000       5.40000000       5.40000000      55.84500000      214        4
Fe      12.60000000       3.60000000       5.40000000      55.84500000      215        4
Co      12.60000000       5.40000000       3.60000000      58.93319400      216        1
Co      10.80000000       3.60000000       7.20000000      58.93319400      217        1
Co      10.80000000       5.40000000       9.00000000      58.93319400      218        1
Co      12.60000000       3.60000000       9.00000000      58.93319400      219        1
Co      12.60000000       5.40000000       7.20000000      58.93319400      220        1
Cr      10.80000000       3.60000000      10.80000000      51.99610000      221        3
Mn      10.80000000       5.40000000      12.60000000      54.93804400      222        5
Co      12.60000000       3.60000000      12.60000000      58.93319400      223        1
Fe      12.60000000       5.40000000      10.80000000      55.84500000      224        4
Mn      10.80000000       7.20000000       0.00000000      54.93804400      225        5
Ni      10.80000000       9.00000000       1.80000000      58.69340000      226        2
Fe      12.60000000       7.20000000       1.80000000      55.84500000      227        4
Mn      12.60000000       9.00000000       0.00000000      54.93804400      228        5
Co      10.80000000       7.20000000       3.60000000      58.93319400      229        1
Fe      10.80000000       9.00000000       5.40000000      55.84500000      230        4
Co      12.60000000       7.20000000       5.40000000      58.93319400      231        1
Ni      12.60000000       9.00000000       3.60000000      58.69340000      232        2
Fe      10.80000000       7.20000000       7.20000000      55.84500000      233        4
Co      10.80000000       9.00000000       9.00000000      58.93319400      234        1
Co      12.60000000       7.20000000       9.00000000      58.93319400      235        1
Fe      12.60000000       9.00000000       7.20000000      55.84500000      236        4
Fe      10.80000000       7.20000000      10.80000000      55.84500000      237        4
Mn      10.80000000       9.00000000      12.60000000      54.93804400      238        5
Mn      12.60000000       7.20000000      12.60000000      54.93804400      239        5
Fe      12.60000000       9.00000000      10.80000000      55.84500000      240        4
Ni      10.80000000      10.80000000       0.00000000      58.69340000      241        2
Ni      10.80000000      12.60000000       1.80000000      58.69340000      242        2
Mn      12.60000000      10.80000000       1.80000000      54.93804400      243        5
Ni      12.60000000      12.60000000       0.00000000      58.69340000      244        2
Ni      10.80000000      10.80000000       3.60000000      58.69340000      245        2
Ni      10.80000000      12.60000000       5.40000000      58.69340000      246        2
Ni      12.60000000      10.80000000       5.40000000      58.69340000      247        2
Mn      12.60000000      12.60000000       3.60000000      54.93804400      248        5
Fe      10.80000000      10.80000000       7.20000000      55.84500000      249        4
Ni      10.80000000      12.60000000       9.00000000      58.69340000      250        2
Co      12.60000000      10.80000000       9.00000000      58.93319400      251        1
Ni      12.60000000      12.60000000       7.20000000      58.69340000      252        2
Ni      10.80000000      10.80000000      10.80000000      58.69340000      253        2
Mn      10.80000000      12.60000000      12.60000000      54.93804400      254        5
Ni      12.60000000      10.80000000      12.60000000      58.69340000      255        2
Ni      12.60000000      12.60000000      10.80000000      58.69340000      256        2
