256
Lattice="14.4 0.0 0.0 0.0 14.4 0.0 0.0 0.0 14.4" Properties=species:S:1:pos:R:3:masses:R:1:id:I:1:type:I:1 comment="(written by ASE)" energy=-1020.55059367622 pbc="T T T"
Ni       0.00000000       0.00000000       0.00000000      58.69340000        1        2
Mn       0.00000000       1.80000000       1.80000000      54.93804400        2        5
Mn       1.80000000       0.00000000       1.80000000      54.93804400        3        5
Mn       1.80000000       1.80000000       0.00000000      54.93804400        4        5
Mn       0.00000000       0.00000000       3.60000000      54.93804400        5        5
Mn       0.00000000       1.80000000       5.40000000      54.93804400        6        5
Cr       1.80000000       0.00000000       5.40000000      51.99610000        7        3
Co       1.80000000       1.80000000       3.60000000      58.93319400        8        1
Mn       0.00000000       0.00000000       7.20000000      54.93804400        9        5
Ni       0.00000000       1.80000000       9.00000000      58.69340000       10        2
Ni       1.80000000       0.00000000       9.00000000      58.69340000       11        2
Co       1.80000000       1.80000000       7.20000000      58.93319400       12        1
Mn       0.00000000       0.00000000      10.80000000      54.93804400       13        5
Mn       0.00000000       1.80000000      12.60000000      54.93804400       14        5
Mn       1.80000000       0.00000000      12.60000000      54.93804400       15        5
Mn       1.80000000       1.80000000      10.80000000      54.93804400       16        5
Mn       0.00000000       3.60000000       0.00000000      54.93804400       17        5
Mn       0.00000000       5.40000000       1.80000000      54.93804400       18        5
Mn       1.80000000       3.60000000       1.80000000      54.93804400       19        5
Mn       1.80000000       5.40000000       0.00000000      54.93804400       20        5
Co       0.00000000       3.60000000       3.60000000      58.93319400       21        1
Cr       0.00000000       5.40000000       5.40000000      51.99610000       22        3
Mn       1.80000000       3.60000000       5.40000000      54.93804400       23        5
Mn       1.80000000       5.40000000       3.60000000      54.93804400       24        5
Mn       0.00000000       3.60000000       7.20000000      54.93804400       25        5
Mn       0.00000000       5.40000000       9.00000000      54.93804400       26        5
Ni       1.80000000       3.60000000       9.00000000      58.69340000       27        2
Mn       1.80000000       5.40000000       7.20000000      54.93804400       28        5
Mn       0.00000000       3.60000000      10.80000000      54.93804400       29        5
Mn       0.00000000       5.40000000      12.60000000      54.93804400       30        5
Co       1.80000000       3.60000000      12.60000000      58.93319400       31        1
Mn       1.80000000       5.40000000      10.80000000      54.93804400       32        5
Co       0.00000000       7.20000000       0.00000000      58.93319400       33        1
Fe       0.00000000       9.00000000       1.80000000      55.84500000       34        4
Cr       1.80000000       7.20000000       1.80000000      51.99610000       35        3
Fe       1.80000000       9.00000000       0.00000000      55.84500000       36        4
Co       0.00000000       7.20000000       3.60000000      58.93319400       37        1
Mn       0.00000000       9.00000000       5.40000000      54.93804400       38        5
Mn       1.80000000       7.20000000       5.40000000      54.93804400       39        5
Cr       1.80000000       9.00000000       3.60000000      51.99610000       40        3
Mn       0.00000000       7.20000000       7.20000000      54.93804400       41        5
Co       0.00000000       9.00000000       9.00000000      58.93319400       42        1
Cr       1.80000000       7.20000000       9.00000000      51.99610000       43        3
Co       1.80000000       9.00000000       7.20000000      58.93319400       44        1
Co       0.00000000       7.20000000      10.80000000      58.93319400       45        1
Ni       0.00000000       9.00000000      12.60000000      58.69340000       46        2
Ni       1.80000000       7.20000000      12.60000000      58.69340000       47        2
Fe       1.80000000       9.00000000      10.80000000      55.84500000       48        4
Ni       0.00000000      10.80000000       0.00000000      58.69340000       49        2
Ni       0.00000000      12.60000000       1.80000000      58.69340000       50        2
Fe       1.80000000      10.80000000       1.80000000      55.84500000       51        4
Mn       1.80000000      12.60000000       0.00000000      54.93804400       52        5
Ni       0.00000000      10.80000000       3.60000000      58.69340000       53        2
Ni       0.00000000      12.60000000       5.40000000      58.69340000       54        2
Mn       1.80000000      10.80000000       5.40000000      54.93804400       55        5
Mn       1.80000000      12.60000000       3.60000000      54.93804400       56        5
Mn       0.00000000      10.80000000       7.20000000      54.93804400       57        5
Ni       0.00000000      12.60000000       9.00000000      58.69340000       58        2
Fe       1.80000000      10.80000000       9.00000000      55.84500000       59        4
Ni       1.80000000      12.60000000       7.20000000      58.69340000       60        2
Ni       0.00000000      10.80000000      10.80000000      58.69340000       61        2
Ni       0.00000000      12.60000000      12.60000000      58.69340000       62        2
Fe       1.80000000      10.80000000      12.60000000      55.84500000       63        4
Ni       1.80000000      12.60000000      10.80000000      58.69340000       64        2
Co       3.60000000       0.00000000       0.00000000      58.93319400       65        1
Co       3.60000000       1.80000000       1.80000000      58.93319400       66        1
Cr       5.40000000       0.00000000       1.80000000      51.99610000       67        3
Fe       5.40000000       1.80000000       0.00000000      55.84500000       68        4
Mn       3.60000000       0.00000000       3.60000000      54.93804400       69        5
Cr       3.60000000       1.80000000       5.40000000      51.99610000       70        3
Ni       5.40000000       0.00000000       5.40000000      58.69340000       71        2
Co       5.40000000       1.80000000       3.60000000      58.93319400       72        1
Fe       3.60000000       0.00000000       7.20000000      55.84500000       73        4
Fe       3.60000000       1.80000000       9.00000000      55.84500000       74        4
Cr       5.40000000       0.00000000       9.00000000      51.99610000       75        3
Co       5.40000000       1.80000000       7.20000000      58.93319400       76        1
Cr       3.60000000       0.00000000      10.80000000      51.99610000       77        3
Cr       3.60000000       1.80000000      12.60000000      51.99610000       78        3
Cr       5.40000000       0.00000000      12.60000000      51.99610000       79        3
Fe       5.40000000       1.80000000      10.80000000      55.84500000       80        4
Mn       3.60000000       3.60000000       0.00000000      54.93804400       81        5
Co       3.60000000       5.40000000       1.80000000      58.93319400       82        1
Cr       5.40000000       3.60000000       1.80000000      51.99610000       83        3
Co       5.40000000       5.40000000       0.00000000      58.93319400       84        1
Mn       3.60000000       3.60000000       3.60000000      54.93804400       85        5
Mn       3.60000000       5.40000000       5.40000000      54.93804400       86        5
Mn       5.40000000       3.60000000       5.40000000      54.93804400       87        5
Co       5.40000000       5.40000000       3.60000000      58.93319400       88        1
Mn       3.60000000       3.60000000       7.20000000      54.93804400       89        5
Mn       3.60000000       5.40000000       9.00000000      54.93804400       90        5
Cr       5.40000000       3.60000000       9.00000000      51.99610000       91        3
Co       5.40000000       5.40000000       7.20000000      58.93319400       92        1
Co       3.60000000       3.60000000      10.80000000      58.93319400       93        1
Cr       3.60000000       5.40000000      12.60000000      51.99610000       94        3
Fe       5.40000000       3.60000000      12.60000000      55.84500000       95        4
Fe       5.40000000       5.40000000      10.80000000      55.84500000       96        4
Mn       3.60000000       7.20000000       0.00000000      54.93804400       97        5
Co       3.60000000       9.00000000       1.80000000      58.93319400       98        1
Cr       5.40000000       7.20000000       1.80000000      51.99610000       99        3
Mn       5.40000000       9.00000000       0.00000000      54.93804400      100        5
Mn       3.60000000       7.20000000       3.60000000      54.93804400      101        5
Co       3.60000000       9.00000000       5.40000000      58.93319400      102        1
Fe       5.40000000       7.20000000       5.40000000      55.84500000      103        4
Fe       5.40000000       9.00000000       3.60000000      55.84500000      104        4
Cr       3.60000000       7.20000000       7.20000000      51.99610000      105        3
Fe       3.60000000       9.00000000       9.00000000      55.84500000      106        4
Fe       5.40000000       7.20000000       9.00000000      55.84500000      107        4
Co       5.40000000       9.00000000       7.20000000      58.93319400      108        1
Co       3.60000000       7.20000000      10.80000000      58.93319400      109        1
Cr       3.60000000       9.00000000      12.60000000      51.99610000      110        3
Cr       5.40000000       7.20000000      12.60000000      51.99610000      111        3
Co       5.40000000       9.00000000      10.80000000      58.93319400      112        1
Cr       3.60000000      10.80000000       0.00000000      51.99610000      113        3
Co       3.60000000      12.60000000       1.80000000      58.93319400      114        1
Cr       5.40000000      10.80000000       1.80000000      51.99610000      115        3
Mn       5.40000000      12.60000000       0.00000000      54.93804400      116        5
Cr       3.60000000      10.80000000       3.60000000      51.99610000      117        3
Co       3.60000000      12.60000000       5.40000000      58.93319400      118        1
Mn       5.40000000      10.80000000       5.40000000      54.93804400      119        5
Mn       5.40000000      12.60000000       3.60000000      54.93804400      120        5
Cr       3.60000000      10.80000000       7.20000000      51.99610000      121        3
Fe       3.60000000      12.60000000       9.00000000      55.84500000      122        4
Fe       5.40000000      10.80000000       9.00000000      55.84500000      123        4
Co       5.40000000      12.60000000       7.20000000      58.93319400      124        1
Cr       3.60000000      10.80000000      10.80000000      51.99610000      125        3
Co       3.60000000      12.60000000      12.60000000      58.93319400      126        1
Mn       5.40000000      10.80000000      12.60000000      54.93804400      127        5
Co       5.40000000      12.60000000      10.80000000      58.93319400      128        1
Fe       7.20000000       0.00000000       0.00000000      55.84500000      129        4
Fe       7.20000000       1.80000000       1.80000000      55.84500000      130        4
Ni       9.00000000       0.00000000       1.80000000      58.69340000      131        2
Fe       9.00000000       1.80000000       0.00000000      55.84500000      132        4
Ni       7.20000000       0.00000000       3.60000000      58.69340000      133        2
Ni       7.20000000       1.80000000       5.40000000      58.69340000      134        2
Fe       9.00000000       0.00000000       5.40000000      55.84500000      135        4
Fe       9.00000000       1.80000000       3.60000000      55.84500000      136        4
Fe       7.20000000       0.00000000       7.20000000      55.84500000      137        4
Cr       7.20000000       1.80000000       9.00000000      51.99610000      138        3
Co       9.00000000       0.00000000       9.00000000      58.93319400      139        1
Co       9.00000000       1.80000000       7.20000000      58.93319400      140        1
Cr       7.20000000       0.00000000      10.80000000      51.99610000      141        3
Fe       7.20000000       1.80000000      12.60000000      55.84500000      142        4
Cr       9.00000000       0.00000000      12.60000000      51.99610000      143        3
Mn       9.00000000       1.80000000      10.80000000      54.93804400      144        5
Cr       7.20000000       3.60000000       0.00000000      51.99610000      145        3
Co       7.20000000       5.40000000       1.80000000      58.93319400      146        1
Fe       9.00000000       3.60000000       1.80000000      55.84500000      147        4
Fe       9.00000000       5.40000000       0.00000000      55.84500000      148        4
Cr       7.20000000       3.60000000       3.60000000      51.99610000      149        3
Cr       7.20000000       5.40000000       5.40000000      51.99610000      150        3
Co       9.00000000       3.60000000       5.40000000      58.93319400      151        1
Fe       9.00000000       5.40000000       3.60000000      55.84500000      152        4
Mn       7.20000000       3.60000000       7.20000000      54.93804400      153        5
Cr       7.20000000       5.40000000       9.00000000      51.99610000      154        3
Cr       9.00000000       3.60000000       9.00000000      51.99610000      155        3
Co       9.00000000       5.40000000       7.20000000      58.93319400      156        1
Co       7.20000000       3.60000000      10.80000000      58.93319400      157        1
Fe       7.20000000       5.40000000      12.60000000      55.84500000      158        4
Co       9.00000000       3.60000000      12.60000000      58.93319400      159        1
Fe       9.00000000       5.40000000      10.80000000      55.84500000      160        4
Co       7.20000000       7.20000000       0.00000000      58.93319400      161        1
Co       7.20000000       9.00000000       1.80000000      58.93319400      162        1
Fe       9.00000000       7.20000000       1.80000000      55.84500000      163        4
Cr       9.00000000       9.00000000       0.00000000      51.99610000      164        3
Fe       7.20000000       7.20000000       3.60000000      55.84500000      165        4
Co       7.20000000       9.00000000       5.40000000      58.93319400      166        1
Fe       9.00000000       7.20000000       5.40000000      55.84500000      167        4
Fe       9.00000000       9.00000000       3.60000000      55.84500000      168        4
Fe       7.20000000       7.20000000       7.20000000      55.84500000      169        4
Fe       7.20000000       9.00000000       9.00000000      55.84500000      170        4
Cr       9.00000000       7.20000000       9.00000000      51.99610000      171        3
Fe       9.00000000       9.00000000       7.20000000      55.84500000      172        4
Co       7.20000000       7.20000000      10.80000000      58.93319400      173        1
Mn       7.20000000       9.00000000      12.60000000      54.93804400      174        5
Fe       9.00000000       7.20000000      12.60000000      55.84500000      175        4
Mn       9.00000000       9.00000000      10.80000000      54.93804400      176        5
Co       7.20000000      10.80000000       0.00000000      58.93319400      177        1
Ni       7.20000000      12.60000000       1.80000000      58.69340000      178        2
Fe       9.00000000      10.80000000       1.80000000      55.84500000      179        4
Fe       9.00000000      12.60000000       0.00000000      55.84500000      180        4
Ni       7.20000000      10.80000000       3.60000000      58.69340000      181        2
Ni       7.20000000      12.60000000       5.40000000      58.69340000      182        2
Fe       9.00000000      10.80000000       5.40000000      55.84500000      183        4
Ni       9.00000000      12.60000000       3.60000000      58.69340000      184        2
Cr       7.20000000      10.80000000       7.20000000      51.99610000      185        3
Fe       7.20000000      12.60000000       9.00000000      55.84500000      186        4
Co       9.00000000      10.80000000       9.00000000      58.93319400      187        1
Ni       9.00000000      12.60000000       7.20000000      58.69340000      188        2
Cr       7.20000000      10.80000000      10.80000000      51.99610000      189        3
Mn       7.20000000      12.60000000      12.60000000      54.93804400      190        5
Mn       9.00000000      10.80000000      12.60000000      54.93804400      191        5
Fe       9.00000000      12.60000000      10.80000000      55.84500000      192        4
Ni      10.80000000       0.00000000       0.00000000      58.69340000      193        2
Ni      10.80000000       1.80000000       1.80000000      58.69340000      194        2
Ni      12.60000000       0.00000000       1.80000000      58.69340000      195        2
Ni      12.60000000       1.80000000       0.00000000      58.69340000      196        2
Ni      10.80000000       0.00000000       3.60000000      58.69340000      197        2
Mn      10.80000000       1.80000000       5.40000000      54.93804400      198        5
Ni      12.60000000       0.00000000       5.40000000      58.69340000      199        2
Mn      12.60000000       1.80000000       3.60000000      54.93804400      200        5
Ni      10.80000000       0.00000000       7.20000000      58.69340000      201        2
Mn      10.80000000       1.80000000       9.00000000      54.93804400      202        5
Ni      12.60000000       0.00000000       9.00000000      58.69340000      203        2
Mn      12.60000000       1.80000000       7.20000000      54.93804400      204        5
Fe      10.80000000       0.00000000      10.80000000      55.84500000      205        4
Co      10.80000000       1.80000000      12.60000000      58.93319400      206        1
Ni      12.60000000       0.00000000      12.60000000      58.69340000      207        2
Mn      12.60000000       1.80000000      10.80000000      54.93804400      208        5
Fe      10.80000000       3.60000000       0.00000000      55.84500000      209        4
Cr      10.80000000       5.40000000       1.80000000      51.99610000      210        3
Mn      12.60000000       3.60000000       1.80000000      54.93804400      211        5
Co      12.60000000       5.40000000       0.00000000      58.93319400      212        1
Cr      10.80000000       3.60000000       3.60000000      51.99610000      213        3
Cr      10.80000000       5.40000000       5.40000000      51.99610000      214        3
Co      12.60000000       3.60000000       5.40000000      58.93319400      215        1
Mn      12.60000000       5.40000000       3.60000000      54.93804400      216        5
Mn      10.80000000       3.60000000       7.20000000      54.93804400      217        5
Mn      10.80000000       5.40000000       9.00000000      54.93804400      218        5
Co      12.60000000       3.60000000       9.00000000      58.93319400      219        1
Mn      12.60000000       5.40000000       7.20000000      54.93804400      220        5
Mn      10.80000000       3.60000000      10.80000000      54.93804400      221        5
Fe      10.80000000       5.40000000      12.60000000      55.84500000      222        4
Cr      12.60000000       3.60000000      12.60000000      51.99610000      223        3
Cr      12.60000000       5.40000000      10.80000000      51.99610000      224        3
Co      10.80000000       7.20000000       0.00000000      58.93319400      225        1
Cr      10.80000000       9.00000000       1.80000000      51.99610000      226        3
Cr      12.60000000       7.20000000       1.80000000      51.99610000      227        3
Fe      12.60000000       9.00000000       0.00000000      55.84500000      228        4
Co      10.80000000       7.20000000       3.60000000      58.93319400      229        1
Fe      10.80000000       9.00000000       5.40000000      55.84500000      230        4
Cr      12.60000000       7.20000000       5.40000000      51.99610000      231        3
Fe      12.60000000       9.00000000       3.60000000      55.84500000      232        4
Co      10.80000000       7.20000000       7.20000000      58.93319400      233        1
Cr      10.80000000       9.00000000       9.00000000      51.99610000      234        3
Mn      12.60000000       7.20000000       9.00000000      54.93804400      235        5
Cr      12.60000000       9.00000000       7.20000000      51.99610000      236        3
Co      10.80000000       7.20000000      10.80000000      58.93319400      237        1
Cr      10.80000000       9.00000000      12.60000000      51.99610000      238        3
Fe      12.60000000       7.20000000      12.60000000      55.84500000      239        4
Fe      12.60000000       9.00000000      10.80000000      55.84500000      240        4
Fe      10.80000000      10.80000000       0.00000000      55.84500000      241        4
Ni      10.80000000      12.60000000       1.80000000      58.69340000      242        2
Fe      12.60000000      10.80000000       1.80000000      55.84500000      243        4
Ni      12.60000000      12.60000000       0.00000000      58.69340000      244        2
Ni      10.80000000      10.80000000       3.60000000      58.69340000      245        2
Ni      10.80000000      12.60000000       5.40000000      58.69340000      246        2
Ni      12.60000000      10.80000000       5.40000000      58.69340000      247        2
Ni      12.60000000      12.60000000       3.60000000      58.69340000      248        2
Cr      10.80000000      10.80000000       7.20000000      51.99610000      249        3
Ni      10.80000000      12.60000000       9.00000000      58.69340000      250        2
Ni      12.60000000      10.80000000       9.00000000      58.69340000      251        2
Ni      12.60000000      12.60000000       7.20000000      58.69340000      252        2
Ni      10.80000000      10.80000000      10.80000000      58.69340000      253        2
Ni      10.80000000      12.60000000      12.60000000      58.69340000      254        2
Ni      12.60000000      10.80000000      12.60000000      58.69340000      255        2
Ni      12.60000000      12.60000000      10.80000000      58.69340000      256        2
