256
Lattice="14.4 0.0 0.0 0.0 14.4 0.0 0.0 0.0 14.4" Properties=species:S:1:pos:R:3:masses:R:1:id:I:1:type:I:1 comment="(written by ASE)" energy=-1025.67511149918 pbc="T T T"
Cr       0.00000000       0.00000000       0.00000000      51.99610000        1        3
Mn       0.00000000       1.80000000       1.80000000      54.93804400        2        5
Fe       1.80000000       0.00000000       1.80000000      55.84500000        3        4
Cr       1.80000000       1.80000000       0.00000000      51.99610000        4        3
Ni       0.00000000       0.00000000       3.60000000      58.69340000        5        2
Mn       0.00000000       1.80000000       5.40000000      54.93804400        6        5
Co       1.80000000       0.00000000       5.40000000      58.93319400        7        1
Cr       1.80000000       1.80000000       3.60000000      51.99610000        8        3
Ni       0.00000000       0.00000000       7.20000000      58.69340000        9        2
Mn       0.00000000       1.80000000       9.00000000      54.93804400       10        5
Mn       1.80000000       0.00000000       9.00000000      54.93804400       11        5
Co       1.80000000       1.80000000       7.20000000      58.93319400       12        1
Cr       0.00000000       0.00000000      10.80000000      51.99610000       13        3
Mn       0.00000000       1.80000000      12.60000000      54.93804400       14        5
Mn       1.80000000       0.00000000      12.60000000      54.93804400       15        5
Ni       1.80000000       1.80000000      10.80000000      58.69340000       16        2
Mn       0.00000000       3.60000000       0.00000000      54.93804400       17        5
Co       0.00000000       5.40000000       1.80000000      58.93319400       18        1
Fe       1.80000000       3.60000000       1.80000000      55.84500000       19        4
Mn       1.80000000       5.40000000       0.00000000      54.93804400       20        5
Co       0.00000000       3.60000000       3.60000000      58.93319400       21        1
Fe       0.00000000       5.40000000       5.40000000      55.84500000       22        4
Fe       1.80000000       3.60000000       5.40000000      55.84500000       23        4
Fe       1.80000000       5.40000000       3.60000000      55.84500000       24        4
Fe       0.00000000       3.60000000       7.20000000      55.84500000       25        4
Fe       0.00000000       5.40000000       9.00000000      55.84500000       26        4
Cr       1.80000000       3.60000000       9.00000000      51.99610000       27        3
Fe       1.80000000       5.40000000       7.20000000      55.84500000       28        4
Ni       0.00000000       3.60000000      10.80000000      58.69340000       29        2
Ni       0.00000000       5.40000000      12.60000000      58.69340000       30        2
Ni       1.80000000       3.60000000      12.60000000      58.69340000       31        2
Mn       1.80000000       5.40000000      10.80000000      54.93804400       32        5
Co       0.00000000       7.20000000       0.00000000      58.93319400       33        1
Co       0.00000000       9.00000000       1.80000000      58.93319400       34        1
Fe       1.80000000       7.20000000       1.80000000      55.84500000       35        4
Cr       1.80000000       9.00000000       0.00000000      51.99610000       36        3
Fe       0.00000000       7.20000000       3.60000000      55.84500000       37        4
Fe       0.00000000       9.00000000       5.40000000      55.84500000       38        4
Fe       1.80000000       7.20000000       5.40000000      55.84500000       39        4
Fe       1.80000000       9.00000000       3.60000000      55.84500000       40        4
Fe       0.00000000       7.20000000       7.20000000      55.84500000       41        4
Fe       0.00000000       9.00000000       9.00000000      55.84500000       42        4
Fe       1.80000000       7.20000000       9.00000000      55.84500000       43        4
Fe       1.80000000       9.00000000       7.20000000      55.84500000       44        4
Fe       0.00000000       7.20000000      10.80000000      55.84500000       45        4
Mn       0.00000000       9.00000000      12.60000000      54.93804400       46        5
Cr       1.80000000       7.20000000      12.60000000      51.99610000       47        3
Fe       1.80000000       9.00000000      10.80000000      55.84500000       48        4
Cr       0.00000000      10.80000000       0.00000000      51.99610000       49        3
Mn       0.00000000      12.60000000       1.80000000      54.93804400       50        5
Co       1.80000000      10.80000000       1.80000000      58.93319400       51        1
Ni       1.80000000      12.60000000       0.00000000      58.69340000       52        2
Co       0.00000000      10.80000000       3.60000000      58.93319400       53        1
Mn       0.00000000      12.60000000       5.40000000      54.93804400       54        5
Co       1.80000000      10.80000000       5.40000000      58.93319400       55        1
Co       1.80000000      12.60000000       3.60000000      58.93319400       56        1
Co       0.00000000      10.80000000       7.20000000      58.93319400       57        1
Cr       0.00000000      12.60000000       9.00000000      51.99610000       58        3
Mn       1.80000000      10.80000000       9.00000000      54.93804400       59        5
Co       1.80000000      12.60000000       7.20000000      58.93319400       60        1
Cr       0.00000000      10.80000000      10.80000000      51.99610000       61        3
Ni       0.00000000      12.60000000      12.60000000      58.69340000       62        2
Mn       1.80000000      10.80000000      12.60000000      54.93804400       63        5
Mn       1.80000000      12.60000000      10.80000000      54.93804400       64        5
Fe       3.60000000       0.00000000       0.00000000      55.84500000       65        4
Fe       3.60000000       1.80000000       1.80000000      55.84500000       66        4
Fe       5.40000000       0.00000000       1.80000000      55.84500000       67        4
Fe       5.40000000       1.80000000       0.00000000      55.84500000       68        4
Fe       3.60000000       0.00000000       3.60000000      55.84500000       69        4
Ni       3.60000000       1.80000000       5.40000000      58.69340000       70        2
Co       5.40000000       0.00000000       5.40000000      58.93319400       71        1
Fe       5.40000000       1.80000000       3.60000000      55.84500000       72        4
Co       3.60000000       0.00000000       7.20000000      58.93319400       73        1
Mn       3.60000000       1.80000000       9.00000000      54.93804400       74        5
Mn       5.40000000       0.00000000       9.00000000      54.93804400       75        5
Cr       5.40000000       1.80000000       7.20000000      51.99610000       76        3
Cr       3.60000000       0.00000000      10.80000000      51.99610000       77        3
Mn       3.60000000       1.80000000      12.60000000      54.93804400       78        5
Cr       5.40000000       0.00000000      12.60000000      51.99610000       79        3
Cr       5.40000000       1.80000000      10.80000000      51.99610000       80        3
Fe       3.60000000       3.60000000       0.00000000      55.84500000       81        4
Fe       3.60000000       5.40000000       1.80000000      55.84500000       82        4
Fe       5.40000000       3.60000000       1.80000000      55.84500000       83        4
Cr       5.40000000       5.40000000       0.00000000      51.99610000       84        3
Fe       3.60000000       3.60000000       3.60000000      55.84500000       85        4
Fe       3.60000000       5.40000000       5.40000000      55.84500000       86        4
Fe       5.40000000       3.60000000       5.40000000      55.84500000       87        4
Fe       5.40000000       5.40000000       3.60000000      55.84500000       88        4
Ni       3.60000000       3.60000000       7.20000000      58.69340000       89        2
Mn       3.60000000       5.40000000       9.00000000      54.93804400       90        5
Ni       5.40000000       3.60000000       9.00000000      58.69340000       91        2
Ni       5.40000000       5.40000000       7.20000000      58.69340000       92        2
Ni       3.60000000       3.60000000      10.80000000      58.69340000       93        2
Cr       3.60000000       5.40000000      12.60000000      51.99610000       94        3
Ni       5.40000000       3.60000000      12.60000000      58.69340000       95        2
Ni       5.40000000       5.40000000      10.80000000      58.69340000       96        2
Mn       3.60000000       7.20000000       0.00000000      54.93804400       97        5
Fe       3.60000000       9.00000000       1.80000000      55.84500000       98        4
Cr       5.40000000       7.20000000       1.80000000      51.99610000       99        3
Cr       5.40000000       9.00000000       0.00000000      51.99610000      100        3
Fe       3.60000000       7.20000000       3.60000000      55.84500000      101        4
Fe       3.60000000       9.00000000       5.40000000      55.84500000      102        4
Fe       5.40000000       7.20000000       5.40000000      55.84500000      103        4
Fe       5.40000000       9.00000000       3.60000000      55.84500000      104        4
Fe       3.60000000       7.20000000       7.20000000      55.84500000      105        4
Fe       3.60000000       9.00000000       9.00000000      55.84500000      106        4
Cr       5.40000000       7.20000000       9.00000000      51.99610000      107        3
Ni       5.40000000       9.00000000       7.20000000      58.69340000      108        2
Cr       3.60000000       7.20000000      10.80000000      51.99610000      109        3
Cr       3.60000000       9.00000000      12.60000000      51.99610000      110        3
Mn       5.40000000       7.20000000      12.60000000      54.93804400      111        5
Mn       5.40000000       9.00000000      10.80000000      54.93804400      112        5
Fe       3.60000000      10.80000000       0.00000000      55.84500000      113        4
Fe       3.60000000      12.60000000       1.80000000      55.84500000      114        4
Co       5.40000000      10.80000000       1.80000000      58.93319400      115        1
Ni       5.40000000      12.60000000       0.00000000      58.69340000      116        2
Fe       3.60000000      10.80000000       3.60000000      55.84500000      117        4
Fe       3.60000000      12.60000000       5.40000000      55.84500000      118        4
Co       5.40000000      10.80000000       5.40000000      58.93319400      119        1
Co       5.40000000      12.60000000       3.60000000      58.93319400      120        1
Co       3.60000000      10.80000000       7.20000000      58.93319400      121        1
Cr       3.60000000      12.60000000       9.00000000      51.99610000      122        3
Mn       5.40000000      10.80000000       9.00000000      54.93804400      123        5
Co       5.40000000      12.60000000       7.20000000      58.93319400      124        1
Cr       3.60000000      10.80000000      10.80000000      51.99610000      125        3
Cr       3.60000000      12.60000000      12.60000000      51.99610000      126        3
Cr       5.40000000      10.80000000      12.60000000      51.99610000      127        3
Mn       5.40000000      12.60000000      10.80000000      54.93804400      128        5
Ni       7.20000000       0.00000000       0.00000000      58.69340000      129        2
Ni       7.20000000       1.80000000       1.80000000      58.69340000      130        2
Ni       9.00000000       0.00000000       1.80000000      58.69340000      131        2
Ni       9.00000000       1.80000000       0.00000000      58.69340000      132        2
Co       7.20000000       0.00000000       3.60000000      58.93319400      133        1
Co       7.20000000       1.80000000       5.40000000      58.93319400      134        1
Co       9.00000000       0.00000000       5.40000000      58.93319400      135        1
Fe       9.00000000       1.80000000       3.60000000      55.84500000      136        4
Co       7.20000000       0.00000000       7.20000000      58.93319400      137        1
Mn       7.20000000       1.80000000       9.00000000      54.93804400      138        5
Mn       9.00000000       0.00000000       9.00000000      54.93804400      139        5
Co       9.00000000       1.80000000       7.20000000      58.93319400      140        1
Cr       7.20000000       0.00000000      10.80000000      51.99610000      141        3
Ni       7.20000000       1.80000000      12.60000000      58.69340000      142        2
Ni       9.00000000       0.00000000      12.60000000      58.69340000      143        2
Ni       9.00000000       1.80000000      10.80000000      58.69340000      144        2
Ni       7.20000000       3.60000000       0.00000000      58.69340000      145        2
Mn       7.20000000       5.40000000       1.80000000      54.93804400      146        5
Ni       9.00000000       3.60000000       1.80000000      58.69340000      147        2
Cr       9.00000000       5.40000000       0.00000000      51.99610000      148        3
Fe       7.20000000       3.60000000       3.60000000      55.84500000      149        4
Co       7.20000000       5.40000000       5.40000000      58.93319400      150        1
Co       9.00000000       3.60000000       5.40000000      58.93319400      151        1
Co       9.00000000       5.40000000       3.60000000      58.93319400      152        1
Co       7.20000000       3.60000000       7.20000000      58.93319400      153        1
Mn       7.20000000       5.40000000       9.00000000      54.93804400      154        5
Co       9.00000000       3.60000000       9.00000000      58.93319400      155        1
Co       9.00000000       5.40000000       7.20000000      58.93319400      156        1
Ni       7.20000000       3.60000000      10.80000000      58.69340000      157        2
Mn       7.20000000       5.40000000      12.60000000      54.93804400      158        5
Mn       9.00000000       3.60000000      12.60000000      54.93804400      159        5
Cr       9.00000000       5.40000000      10.80000000      51.99610000      160        3
Cr       7.20000000       7.20000000       0.00000000      51.99610000      161        3
Mn       7.20000000       9.00000000       1.80000000      54.93804400      162        5
Cr       9.00000000       7.20000000       1.80000000      51.99610000      163        3
Ni       9.00000000       9.00000000       0.00000000      58.69340000      164        2
Fe       7.20000000       7.20000000       3.60000000      55.84500000      165        4
Cr       7.20000000       9.00000000       5.40000000      51.99610000      166        3
Fe       9.00000000       7.20000000       5.40000000      55.84500000      167        4
Mn       9.00000000       9.00000000       3.60000000      54.93804400      168        5
Mn       7.20000000       7.20000000       7.20000000      54.93804400      169        5
Mn       7.20000000       9.00000000       9.00000000      54.93804400      170        5
Cr       9.00000000       7.20000000       9.00000000      51.99610000      171        3
Cr       9.00000000       9.00000000       7.20000000      51.99610000      172        3
Cr       7.20000000       7.20000000      10.80000000      51.99610000      173        3
Mn       7.20000000       9.00000000      12.60000000      54.93804400      174        5
Mn       9.00000000       7.20000000      12.60000000      54.93804400      175        5
Cr       9.00000000       9.00000000      10.80000000      51.99610000      176        3
Ni       7.20000000      10.80000000       0.00000000      58.69340000      177        2
Mn       7.20000000      12.60000000       1.80000000      54.93804400      178        5
Cr       9.00000000      10.80000000       1.80000000      51.99610000      179        3
Ni       9.00000000      12.60000000       0.00000000      58.69340000      180        2
Co       7.20000000      10.80000000       3.60000000      58.93319400      181        1
Co       7.20000000      12.60000000       5.40000000      58.93319400      182        1
Co       9.00000000      10.80000000       5.40000000      58.93319400      183        1
Co       9.00000000      12.60000000       3.60000000      58.93319400      184        1
Mn       7.20000000      10.80000000       7.20000000      54.93804400      185        5
Ni       7.20000000      12.60000000       9.00000000      58.69340000      186        2
Mn       9.00000000      10.80000000       9.00000000      54.93804400      187        5
Co       9.00000000      12.60000000       7.20000000      58.93319400      188        1
Cr       7.20000000      10.80000000      10.80000000      51.99610000      189        3
Mn       7.20000000      12.60000000      12.60000000      54.93804400      190        5
Ni       9.00000000      10.80000000      12.60000000      58.69340000      191        2
Mn       9.00000000      12.60000000      10.80000000      54.93804400      192        5
Mn      10.80000000       0.00000000       0.00000000      54.93804400      193        5
Cr      10.80000000       1.80000000       1.80000000      51.99610000      194        3
Mn      12.60000000       0.00000000       1.80000000      54.93804400      195        5
Cr      12.60000000       1.80000000       0.00000000      51.99610000      196        3
Ni      10.80000000       0.00000000       3.60000000      58.69340000      197        2
Co      10.80000000       1.80000000       5.40000000      58.93319400      198        1
Ni      12.60000000       0.00000000       5.40000000      58.69340000      199        2
Ni      12.60000000       1.80000000       3.60000000      58.69340000      200        2
Co      10.80000000       0.00000000       7.20000000      58.93319400      201        1
Co      10.80000000       1.80000000       9.00000000      58.93319400      202        1
Mn      12.60000000       0.00000000       9.00000000      54.93804400      203        5
Fe      12.60000000       1.80000000       7.20000000      55.84500000      204        4
Ni      10.80000000       0.00000000      10.80000000      58.69340000      205        2
Ni      10.80000000       1.80000000      12.60000000      58.69340000      206        2
Mn      12.60000000       0.00000000      12.60000000      54.93804400      207        5
Ni      12.60000000       1.80000000      10.80000000      58.69340000      208        2
Mn      10.80000000       3.60000000       0.00000000      54.93804400      209        5
Mn      10.80000000       5.40000000       1.80000000      54.93804400      210        5
Cr      12.60000000       3.60000000       1.80000000      51.99610000      211        3
Co      12.60000000       5.40000000       0.00000000      58.93319400      212        1
Co      10.80000000       3.60000000       3.60000000      58.93319400      213        1
Co      10.80000000       5.40000000       5.40000000      58.93319400      214        1
Co      12.60000000       3.60000000       5.40000000      58.93319400      215        1
Mn      12.60000000       5.40000000       3.60000000      54.93804400      216        5
Co      10.80000000       3.60000000       7.20000000      58.93319400      217        1
Mn      10.80000000       5.40000000       9.00000000      54.93804400      218        5
Co      12.60000000       3.60000000       9.00000000      58.93319400      219        1
Fe      12.60000000       5.40000000       7.20000000      55.84500000      220        4
Ni      10.80000000       3.60000000      10.80000000      58.69340000      221        2
Cr      10.80000000       5.40000000      12.60000000      51.99610000      222        3
Ni      12.60000000       3.60000000      12.60000000      58.69340000      223        2
Mn      12.60000000       5.40000000      10.80000000      54.93804400      224        5
Mn      10.80000000       7.20000000       0.00000000      54.93804400      225        5
Mn      10.80000000       9.00000000       1.80000000      54.93804400      226        5
Co      12.60000000       7.20000000       1.80000000      58.93319400      227        1
Co      12.60000000       9.00000000       0.00000000      58.93319400      228        1
Co      10.80000000       7.20000000       3.60000000      58.93319400      229        1
Fe      10.80000000       9.00000000       5.40000000      55.84500000      230        4
Fe      12.60000000       7.20000000       5.40000000      55.84500000      231        4
Co      12.60000000       9.00000000       3.60000000      58.93319400      232        1
Mn      10.80000000       7.20000000       7.20000000      54.93804400      233        5
Mn      10.80000000       9.00000000       9.00000000      54.93804400      234        5
Fe      12.60000000       7.20000000       9.00000000      55.84500000      235        4
Fe      12.60000000       9.00000000       7.20000000      55.84500000      236        4
Mn      10.80000000       7.20000000      10.80000000      54.93804400      237        5
Ni      10.80000000       9.00000000      12.60000000      58.69340000      238        2
Co      12.60000000       7.20000000      12.60000000      58.93319400      239        1
Cr      12.60000000       9.00000000      10.80000000      51.99610000      240        3
Ni      10.80000000      10.80000000       0.00000000      58.69340000      241        2
Mn      10.80000000      12.60000000       1.80000000      54.93804400      242        5
Mn      12.60000000      10.80000000       1.80000000      54.93804400      243        5
Ni      12.60000000      12.60000000       0.00000000      58.69340000      244        2
Cr      10.80000000      10.80000000       3.60000000      51.99610000      245        3
Mn      10.80000000      12.60000000       5.40000000      54.93804400      246        5
Cr      12.60000000      10.80000000       5.40000000      51.99610000      247        3
Cr      12.60000000      12.60000000       3.60000000      51.99610000      248        3
Cr      10.80000000      10.80000000       7.20000000      51.99610000      249        3
Ni      10.80000000      12.60000000       9.00000000      58.69340000      250        2
Mn      12.60000000      10.80000000       9.00000000      54.93804400      251        5
Mn      12.60000000      12.60000000       7.20000000      54.93804400      252        5
Ni      10.80000000      10.80000000      10.80000000      58.69340000      253        2
Cr      10.80000000      12.60000000      12.60000000      51.99610000      254        3
Ni      12.60000000      10.80000000      12.60000000      58.69340000      255        2
Mn      12.60000000      12.60000000      10.80000000      54.93804400      256        5
