256
Lattice="14.4 0.0 0.0 0.0 14.4 0.0 0.0 0.0 14.4" Properties=species:S:1:pos:R:3:masses:R:1:id:I:1:type:I:1 comment="(written by ASE)" energy=-1019.8092731732 pbc="T T T"
Ni       0.00000000       0.00000000       0.00000000      58.69340000        1        2
Ni       0.00000000       1.80000000       1.80000000      58.69340000        2        2
Ni       1.80000000       0.00000000       1.80000000      58.69340000        3        2
Ni       1.80000000       1.80000000       0.00000000      58.69340000        4        2
Ni       0.00000000       0.00000000       3.60000000      58.69340000        5        2
Co       0.00000000       1.80000000       5.40000000      58.93319400        6        1
Mn       1.80000000       0.00000000       5.40000000      54.93804400        7        5
Co       1.80000000       1.80000000       3.60000000      58.93319400        8        1
Fe       0.00000000       0.00000000       7.20000000      55.84500000        9        4
Co       0.00000000       1.80000000       9.00000000      58.93319400       10        1
Fe       1.80000000       0.00000000       9.00000000      55.84500000       11        4
Cr       1.80000000       1.80000000       7.20000000      51.99610000       12        3
Fe       0.00000000       0.00000000      10.80000000      55.84500000       13        4
Fe       0.00000000       1.80000000      12.60000000      55.84500000       14        4
Ni       1.80000000       0.00000000      12.60000000      58.69340000       15        2
Fe       1.80000000       1.80000000      10.80000000      55.84500000       16        4
Ni       0.00000000       3.60000000       0.00000000      58.69340000       17        2
Co       0.00000000       5.40000000       1.80000000      58.93319400       18        1
Cr       1.80000000       3.60000000       1.80000000      51.99610000       19        3
Co       1.80000000       5.40000000       0.00000000      58.93319400       20        1
Co       0.00000000       3.60000000       3.60000000      58.93319400       21        1
Cr       0.00000000       5.40000000       5.40000000      51.99610000       22        3
Cr       1.80000000       3.60000000       5.40000000      51.99610000       23        3
Cr       1.80000000       5.40000000       3.60000000      51.99610000       24        3
Cr       0.00000000       3.60000000       7.20000000      51.99610000       25        3
Cr       0.00000000       5.40000000       9.00000000      51.99610000       26        3
Co       1.80000000       3.60000000       9.00000000      58.93319400       27        1
Co       1.80000000       5.40000000       7.20000000      58.93319400       28        1
Fe       0.00000000       3.60000000      10.80000000      55.84500000       29        4
Fe       0.00000000       5.40000000      12.60000000      55.84500000       30        4
Fe       1.80000000       3.60000000      12.60000000      55.84500000       31        4
Co       1.80000000       5.40000000      10.80000000      58.93319400       32        1
Fe       0.00000000       7.20000000       0.00000000      55.84500000       33        4
Ni       0.00000000       9.00000000       1.80000000      58.69340000       34        2
Co       1.80000000       7.20000000       1.80000000      58.93319400       35        1
Co       1.80000000       9.00000000       0.00000000      58.93319400       36        1
Co       0.00000000       7.20000000       3.60000000      58.93319400       37        1
Fe       0.00000000       9.00000000       5.40000000      55.84500000       38        4
Co       1.80000000       7.20000000       5.40000000      58.93319400       39        1
Co       1.80000000       9.00000000       3.60000000      58.93319400       40        1
Cr       0.00000000       7.20000000       7.20000000      51.99610000       41        3
Mn       0.00000000       9.00000000       9.00000000      54.93804400       42        5
Cr       1.80000000       7.20000000       9.00000000      51.99610000       43        3
Cr       1.80000000       9.00000000       7.20000000      51.99610000       44        3
Mn       0.00000000       7.20000000      10.80000000      54.93804400       45        5
Fe       0.00000000       9.00000000      12.60000000      55.84500000       46        4
Fe       1.80000000       7.20000000      12.60000000      55.84500000       47        4
Mn       1.80000000       9.00000000      10.80000000      54.93804400       48        5
Ni       0.00000000      10.80000000       0.00000000      58.69340000       49        2
Ni       0.00000000      12.60000000       1.80000000      58.69340000       50        2
Ni       1.80000000      10.80000000       1.80000000      58.69340000       51        2
Ni       1.80000000      12.60000000       0.00000000      58.69340000       52        2
Ni       0.00000000      10.80000000       3.60000000      58.69340000       53        2
Ni       0.00000000      12.60000000       5.40000000      58.69340000       54        2
Fe       1.80000000      10.80000000       5.40000000      55.84500000       55        4
Ni       1.80000000      12.60000000       3.60000000      58.69340000       56        2
Mn       0.00000000      10.80000000       7.20000000      54.93804400       57        5
Fe       0.00000000      12.60000000       9.00000000      55.84500000       58        4
Mn       1.80000000      10.80000000       9.00000000      54.93804400       59        5
Mn       1.80000000      12.60000000       7.20000000      54.93804400       60        5
Fe       0.00000000      10.80000000      10.80000000      55.84500000       61        4
Ni       0.00000000      12.60000000      12.60000000      58.69340000       62        2
Ni       1.80000000      10.80000000      12.60000000      58.69340000       63        2
Co       1.80000000      12.60000000      10.80000000      58.93319400       64        1
Ni       3.60000000       0.00000000       0.00000000      58.69340000       65        2
Cr       3.60000000       1.80000000       1.80000000      51.99610000       66        3
Co       5.40000000       0.00000000       1.80000000      58.93319400       67        1
Co       5.40000000       1.80000000       0.00000000      58.93319400       68        1
Co       3.60000000       0.00000000       3.60000000      58.93319400       69        1
Cr       3.60000000       1.80000000       5.40000000      51.99610000       70        3
Mn       5.40000000       0.00000000       5.40000000      54.93804400       71        5
Cr       5.40000000       1.80000000       3.60000000      51.99610000       72        3
Mn       3.60000000       0.00000000       7.20000000      54.93804400       73        5
Co       3.60000000       1.80000000       9.00000000      58.93319400       74        1
Cr       5.40000000       0.00000000       9.00000000      51.99610000       75        3
Cr       5.40000000       1.80000000       7.20000000      51.99610000       76        3
Co       3.60000000       0.00000000      10.80000000      58.93319400       77        1
Ni       3.60000000       1.80000000      12.60000000      58.69340000       78        2
Co       5.40000000       0.00000000      12.60000000      58.93319400       79        1
Fe       5.40000000       1.80000000      10.80000000      55.84500000       80        4
Mn       3.60000000       3.60000000       0.00000000      54.93804400       81        5
Cr       3.60000000       5.40000000       1.80000000      51.99610000       82        3
Cr       5.40000000       3.60000000       1.80000000      51.99610000       83        3
Ni       5.40000000       5.40000000       0.00000000      58.69340000       84        2
Cr       3.60000000       3.60000000       3.60000000      51.99610000       85        3
Cr       3.60000000       5.40000000       5.40000000      51.99610000       86        3
Cr       5.40000000       3.60000000       5.40000000      51.99610000       87        3
Cr       5.40000000       5.40000000       3.60000000      51.99610000       88        3
Cr       3.60000000       3.60000000       7.20000000      51.99610000       89        3
Mn       3.60000000       5.40000000       9.00000000      54.93804400       90        5
Cr       5.40000000       3.60000000       9.00000000      51.99610000       91        3
Mn       5.40000000       5.40000000       7.20000000      54.93804400       92        5
Co       3.60000000       3.60000000      10.80000000      58.93319400       93        1
Ni       3.60000000       5.40000000      12.60000000      58.69340000       94        2
Ni       5.40000000       3.60000000      12.60000000      58.69340000       95        2
Ni       5.40000000       5.40000000      10.80000000      58.69340000       96        2
Ni       3.60000000       7.20000000       0.00000000      58.69340000       97        2
Ni       3.60000000       9.00000000       1.80000000      58.69340000       98        2
Co       5.40000000       7.20000000       1.80000000      58.93319400       99        1
Fe       5.40000000       9.00000000       0.00000000      55.84500000      100        4
Co       3.60000000       7.20000000       3.60000000      58.93319400      101        1
Mn       3.60000000       9.00000000       5.40000000      54.93804400      102        5
Mn       5.40000000       7.20000000       5.40000000      54.93804400      103        5
Mn       5.40000000       9.00000000       3.60000000      54.93804400      104        5
Mn       3.60000000       7.20000000       7.20000000      54.93804400      105        5
Mn       3.60000000       9.00000000       9.00000000      54.93804400      106        5
Mn       5.40000000       7.20000000       9.00000000      54.93804400      107        5
Mn       5.40000000       9.00000000       7.20000000      54.93804400      108        5
Co       3.60000000       7.20000000      10.80000000      58.93319400      109        1
Co       3.60000000       9.00000000      12.60000000      58.93319400      110        1
Ni       5.40000000       7.20000000      12.60000000      58.69340000      111        2
Mn       5.40000000       9.00000000      10.80000000      54.93804400      112        5
Co       3.60000000      10.80000000       0.00000000      58.93319400      113        1
Fe       3.60000000      12.60000000       1.80000000      55.84500000      114        4
Mn       5.40000000      10.80000000       1.80000000      54.93804400      115        5
Co       5.40000000      12.60000000       0.00000000      58.93319400      116        1
Mn       3.60000000      10.80000000       3.60000000      54.93804400      117        5
Mn       3.60000000      12.60000000       5.40000000      54.93804400      118        5
Mn       5.40000000      10.80000000       5.40000000      54.93804400      119        5
Mn       5.40000000      12.60000000       3.60000000      54.93804400      120        5
Mn       3.60000000      10.80000000       7.20000000      54.93804400      121        5
Cr       3.60000000      12.60000000       9.00000000      51.99610000      122        3
Mn       5.40000000      10.80000000       9.00000000      54.93804400      123        5
Mn       5.40000000      12.60000000       7.20000000      54.93804400      124        5
Cr       3.60000000      10.80000000      10.80000000      51.99610000      125        3
Co       3.60000000      12.60000000      12.60000000      58.93319400      126        1
Mn       5.40000000      10.80000000      12.60000000      54.93804400      127        5
Co       5.40000000      12.60000000      10.80000000      58.93319400      128        1
Co       7.20000000       0.00000000       0.00000000      58.93319400      129        1
Cr       7.20000000       1.80000000       1.80000000      51.99610000      130        3
Fe       9.00000000       0.00000000       1.80000000      55.84500000      131        4
Co       9.00000000       1.80000000       0.00000000      58.93319400      132        1
Mn       7.20000000       0.00000000       3.60000000      54.93804400      133        5
Cr       7.20000000       1.80000000       5.40000000      51.99610000      134        3
Mn       9.00000000       0.00000000       5.40000000      54.93804400      135        5
Mn       9.00000000       1.80000000       3.60000000      54.93804400      136        5
Mn       7.20000000       0.00000000       7.20000000      54.93804400      137        5
Cr       7.20000000       1.80000000       9.00000000      51.99610000      138        3
Fe       9.00000000       0.00000000       9.00000000      55.84500000      139        4
Co       9.00000000       1.80000000       7.20000000      58.93319400      140        1
Co       7.20000000       0.00000000      10.80000000      58.93319400      141        1
Fe       7.20000000       1.80000000      12.60000000      55.84500000      142        4
Fe       9.00000000       0.00000000      12.60000000      55.84500000      143        4
Mn       9.00000000       1.80000000      10.80000000      54.93804400      144        5
Co       7.20000000       3.60000000       0.00000000      58.93319400      145        1
Cr       7.20000000       5.40000000       1.80000000      51.99610000      146        3
Co       9.00000000       3.60000000       1.80000000      58.93319400      147        1
Co       9.00000000       5.40000000       0.00000000      58.93319400      148        1
Cr       7.20000000       3.60000000       3.60000000      51.99610000      149        3
Cr       7.20000000       5.40000000       5.40000000      51.99610000      150        3
Cr       9.00000000       3.60000000       5.40000000      51.99610000      151        3
Cr       9.00000000       5.40000000       3.60000000      51.99610000      152        3
Cr       7.20000000       3.60000000       7.20000000      51.99610000      153        3
Mn       7.20000000       5.40000000       9.00000000      54.93804400      154        5
Cr       9.00000000       3.60000000       9.00000000      51.99610000      155        3
Cr       9.00000000       5.40000000       7.20000000      51.99610000      156        3
Co       7.20000000       3.60000000      10.80000000      58.93319400      157        1
Ni       7.20000000       5.40000000      12.60000000      58.69340000      158        2
Fe       9.00000000       3.60000000      12.60000000      55.84500000      159        4
Mn       9.00000000       5.40000000      10.80000000      54.93804400      160        5
Fe       7.20000000       7.20000000       0.00000000      55.84500000      161        4
Mn       7.20000000       9.00000000       1.80000000      54.93804400      162        5
Cr       9.00000000       7.20000000       1.80000000      51.99610000      163        3
Mn       9.00000000       9.00000000       0.00000000      54.93804400      164        5
Cr       7.20000000       7.20000000       3.60000000      51.99610000      165        3
Mn       7.20000000       9.00000000       5.40000000      54.93804400      166        5
Cr       9.00000000       7.20000000       5.40000000      51.99610000      167        3
Co       9.00000000       9.00000000       3.60000000      58.93319400      168        1
Mn       7.20000000       7.20000000       7.20000000      54.93804400      169        5
Mn       7.20000000       9.00000000       9.00000000      54.93804400      170        5
Mn       9.00000000       7.20000000       9.00000000      54.93804400      171        5
Mn       9.00000000       9.00000000       7.20000000      54.93804400      172        5
Fe       7.20000000       7.20000000      10.80000000      55.84500000      173        4
Mn       7.20000000       9.00000000      12.60000000      54.93804400      174        5
Mn       9.00000000       7.20000000      12.60000000      54.93804400      175        5
Fe       9.00000000       9.00000000      10.80000000      55.84500000      176        4
Mn       7.20000000      10.80000000       0.00000000      54.93804400      177        5
Fe       7.20000000      12.60000000       1.80000000      55.84500000      178        4
Fe       9.00000000      10.80000000       1.80000000      55.84500000      179        4
Fe       9.00000000      12.60000000       0.00000000      55.84500000      180        4
Mn       7.20000000      10.80000000       3.60000000      54.93804400      181        5
Mn       7.20000000      12.60000000       5.40000000      54.93804400      182        5
Ni       9.00000000      10.80000000       5.40000000      58.69340000      183        2
Ni       9.00000000      12.60000000       3.60000000      58.69340000      184        2
Mn       7.20000000      10.80000000       7.20000000      54.93804400      185        5
Mn       7.20000000      12.60000000       9.00000000      54.93804400      186        5
Mn       9.00000000      10.80000000       9.00000000      54.93804400      187        5
Fe       9.00000000      12.60000000       7.20000000      55.84500000      188        4
Mn       7.20000000      10.80000000      10.80000000      54.93804400      189        5
Mn       7.20000000      12.60000000      12.60000000      54.93804400      190        5
Mn       9.00000000      10.80000000      12.60000000      54.93804400      191        5
Fe       9.00000000      12.60000000      10.80000000      55.84500000      192        4
Fe      10.80000000       0.00000000       0.00000000      55.84500000      193        4
Fe      10.80000000       1.80000000       1.80000000      55.84500000      194        4
Ni      12.60000000       0.00000000       1.80000000      58.69340000      195        2
Fe      12.60000000       1.80000000       0.00000000      55.84500000      196        4
Ni      10.80000000       0.00000000       3.60000000      58.69340000      197        2
Co      10.80000000       1.80000000       5.40000000      58.93319400      198        1
Ni      12.60000000       0.00000000       5.40000000      58.69340000      199        2
Ni      12.60000000       1.80000000       3.60000000      58.69340000      200        2
Fe      10.80000000       0.00000000       7.20000000      55.84500000      201        4
Fe      10.80000000       1.80000000       9.00000000      55.84500000      202        4
Fe      12.60000000       0.00000000       9.00000000      55.84500000      203        4
Co      12.60000000       1.80000000       7.20000000      58.93319400      204        1
Fe      10.80000000       0.00000000      10.80000000      55.84500000      205        4
Fe      10.80000000       1.80000000      12.60000000      55.84500000      206        4
Fe      12.60000000       0.00000000      12.60000000      55.84500000      207        4
Fe      12.60000000       1.80000000      10.80000000      55.84500000      208        4
Co      10.80000000       3.60000000       0.00000000      58.93319400      209        1
Co      10.80000000       5.40000000       1.80000000      58.93319400      210        1
Ni      12.60000000       3.60000000       1.80000000      58.69340000      211        2
Ni      12.60000000       5.40000000       0.00000000      58.69340000      212        2
Cr      10.80000000       3.60000000       3.60000000      51.99610000      213        3
Cr      10.80000000       5.40000000       5.40000000      51.99610000      214        3
Co      12.60000000       3.60000000       5.40000000      58.93319400      215        1
Cr      12.60000000       5.40000000       3.60000000      51.99610000      216        3
Cr      10.80000000       3.60000000       7.20000000      51.99610000      217        3
Mn      10.80000000       5.40000000       9.00000000      54.93804400      218        5
Co      12.60000000       3.60000000       9.00000000      58.93319400      219        1
Cr      12.60000000       5.40000000       7.20000000      51.99610000      220        3
Mn      10.80000000       3.60000000      10.80000000      54.93804400      221        5
Fe      10.80000000       5.40000000      12.60000000      55.84500000      222        4
Fe      12.60000000       3.60000000      12.60000000      55.84500000      223        4
Co      12.60000000       5.40000000      10.80000000      58.93319400      224        1
Fe      10.80000000       7.20000000       0.00000000      55.84500000      225        4
Fe      10.80000000       9.00000000       1.80000000      55.84500000      226        4
Fe      12.60000000       7.20000000       1.80000000      55.84500000      227        4
Fe      12.60000000       9.00000000       0.00000000      55.84500000      228        4
Co      10.80000000       7.20000000       3.60000000      58.93319400      229        1
Ni      10.80000000       9.00000000       5.40000000      58.69340000      230        2
Cr      12.60000000       7.20000000       5.40000000      51.99610000      231        3
Ni      12.60000000       9.00000000       3.60000000      58.69340000      232        2
Co      10.80000000       7.20000000       7.20000000      58.93319400      233        1
Co      10.80000000       9.00000000       9.00000000      58.93319400      234        1
Cr      12.60000000       7.20000000       9.00000000      51.99610000      235        3
Mn      12.60000000       9.00000000       7.20000000      54.93804400      236        5
Cr      10.80000000       7.20000000      10.80000000      51.99610000      237        3
Mn      10.80000000       9.00000000      12.60000000      54.93804400      238        5
Fe      12.60000000       7.20000000      12.60000000      55.84500000      239        4
Mn      12.60000000       9.00000000      10.80000000      54.93804400      240        5
Mn      10.80000000      10.80000000       0.00000000      54.93804400      241        5
Ni      10.80000000      12.60000000       1.80000000      58.69340000      242        2
Ni      12.60000000      10.80000000       1.80000000      58.69340000      243        2
Ni      12.60000000      12.60000000       0.00000000      58.69340000      244        2
Ni      10.80000000      10.80000000       3.60000000      58.69340000      245        2
Ni      10.80000000      12.60000000       5.40000000      58.69340000      246        2
Ni      12.60000000      10.80000000       5.40000000      58.69340000      247        2
Ni      12.60000000      12.60000000       3.60000000      58.69340000      248        2
Ni      10.80000000      10.80000000       7.20000000      58.69340000      249        2
Fe      10.80000000      12.60000000       9.00000000      55.84500000      250        4
Mn      12.60000000      10.80000000       9.00000000      54.93804400      251        5
Ni      12.60000000      12.60000000       7.20000000      58.69340000      252        2
Fe      10.80000000      10.80000000      10.80000000      55.84500000      253        4
Fe      10.80000000      12.60000000      12.60000000      55.84500000      254        4
Fe      12.60000000      10.80000000      12.60000000      55.84500000      255        4
Fe      12.60000000      12.60000000      10.80000000      55.84500000      256        4
