256
Lattice="14.4 0.0 0.0 0.0 14.4 0.0 0.0 0.0 14.4" Properties=species:S:1:pos:R:3:masses:R:1:id:I:1:type:I:1 comment="(written by ASE)" energy=-1019.0646226996 pbc="T T T"
Co       0.00000000       0.00000000       0.00000000      58.93319400        1        1
Co       0.00000000       1.80000000       1.80000000      58.93319400        2        1
Cr       1.80000000       0.00000000       1.80000000      51.99610000        3        3
Mn       1.80000000       1.80000000       0.00000000      54.93804400        4        5
Ni       0.00000000       0.00000000       3.60000000      58.69340000        5        2
Fe       0.00000000       1.80000000       5.40000000      55.84500000        6        4
Co       1.80000000       0.00000000       5.40000000      58.93319400        7        1
Mn       1.80000000       1.80000000       3.60000000      54.93804400        8        5
Ni       0.00000000       0.00000000       7.20000000      58.69340000        9        2
Co       0.00000000       1.80000000       9.00000000      58.93319400       10        1
Mn       1.80000000       0.00000000       9.00000000      54.93804400       11        5
Cr       1.80000000       1.80000000       7.20000000      51.99610000       12        3
Cr       0.00000000       0.00000000      10.80000000      51.99610000       13        3
Mn       0.00000000       1.80000000      12.60000000      54.93804400       14        5
Co       1.80000000       0.00000000      12.60000000      58.93319400       15        1
Mn       1.80000000       1.80000000      10.80000000      54.93804400       16        5
Fe       0.00000000       3.60000000       0.00000000      55.84500000       17        4
Mn       0.00000000       5.40000000       1.80000000      54.93804400       18        5
Fe       1.80000000       3.60000000       1.80000000      55.84500000       19        4
Cr       1.80000000       5.40000000       0.00000000      51.99610000       20        3
Fe       0.00000000       3.60000000       3.60000000      55.84500000       21        4
Mn       0.00000000       5.40000000       5.40000000      54.93804400       22        5
Fe       1.80000000       3.60000000       5.40000000      55.84500000       23        4
Fe       1.80000000       5.40000000       3.60000000      55.84500000       24        4
Mn       0.00000000       3.60000000       7.20000000      54.93804400       25        5
Fe       0.00000000       5.40000000       9.00000000      55.84500000       26        4
Fe       1.80000000       3.60000000       9.00000000      55.84500000       27        4
Fe       1.80000000       5.40000000       7.20000000      55.84500000       28        4
Fe       0.00000000       3.60000000      10.80000000      55.84500000       29        4
Mn       0.00000000       5.40000000      12.60000000      54.93804400       30        5
Co       1.80000000       3.60000000      12.60000000      58.93319400       31        1
Cr       1.80000000       5.40000000      10.80000000      51.99610000       32        3
Fe       0.00000000       7.20000000       0.00000000      55.84500000       33        4
Ni       0.00000000       9.00000000       1.80000000      58.69340000       34        2
Co       1.80000000       7.20000000       1.80000000      58.93319400       35        1
Cr       1.80000000       9.00000000       0.00000000      51.99610000       36        3
Co       0.00000000       7.20000000       3.60000000      58.93319400       37        1
Mn       0.00000000       9.00000000       5.40000000      54.93804400       38        5
Mn       1.80000000       7.20000000       5.40000000      54.93804400       39        5
Cr       1.80000000       9.00000000       3.60000000      51.99610000       40        3
Fe       0.00000000       7.20000000       7.20000000      55.84500000       41        4
Cr       0.00000000       9.00000000       9.00000000      51.99610000       42        3
Mn       1.80000000       7.20000000       9.00000000      54.93804400       43        5
Fe       1.80000000       9.00000000       7.20000000      55.84500000       44        4
Co       0.00000000       7.20000000      10.80000000      58.93319400       45        1
Mn       0.00000000       9.00000000      12.60000000      54.93804400       46        5
Mn       1.80000000       7.20000000      12.60000000      54.93804400       47        5
Mn       1.80000000       9.00000000      10.80000000      54.93804400       48        5
Ni       0.00000000      10.80000000       0.00000000      58.69340000       49        2
Ni       0.00000000      12.60000000       1.80000000      58.69340000       50        2
Co       1.80000000      10.80000000       1.80000000      58.93319400       51        1
Cr       1.80000000      12.60000000       0.00000000      51.99610000       52        3
Ni       0.00000000      10.80000000       3.60000000      58.69340000       53        2
Ni       0.00000000      12.60000000       5.40000000      58.69340000       54        2
Co       1.80000000      10.80000000       5.40000000      58.93319400       55        1
Cr       1.80000000      12.60000000       3.60000000      51.99610000       56        3
Mn       0.00000000      10.80000000       7.20000000      54.93804400       57        5
Fe       0.00000000      12.60000000       9.00000000      55.84500000       58        4
Co       1.80000000      10.80000000       9.00000000      58.93319400       59        1
Mn       1.80000000      12.60000000       7.20000000      54.93804400       60        5
Fe       0.00000000      10.80000000      10.80000000      55.84500000       61        4
Mn       0.00000000      12.60000000      12.60000000      54.93804400       62        5
Fe       1.80000000      10.80000000      12.60000000      55.84500000       63        4
Mn       1.80000000      12.60000000      10.80000000      54.93804400       64        5
Fe       3.60000000       0.00000000       0.00000000      55.84500000       65        4
Co       3.60000000       1.80000000       1.80000000      58.93319400       66        1
Cr       5.40000000       0.00000000       1.80000000      51.99610000       67        3
Fe       5.40000000       1.80000000       0.00000000      55.84500000       68        4
Fe       3.60000000       0.00000000       3.60000000      55.84500000       69        4
Mn       3.60000000       1.80000000       5.40000000      54.93804400       70        5
Mn       5.40000000       0.00000000       5.40000000      54.93804400       71        5
Fe       5.40000000       1.80000000       3.60000000      55.84500000       72        4
Co       3.60000000       0.00000000       7.20000000      58.93319400       73        1
Co       3.60000000       1.80000000       9.00000000      58.93319400       74        1
Mn       5.40000000       0.00000000       9.00000000      54.93804400       75        5
Fe       5.40000000       1.80000000       7.20000000      55.84500000       76        4
Fe       3.60000000       0.00000000      10.80000000      55.84500000       77        4
Cr       3.60000000       1.80000000      12.60000000      51.99610000       78        3
Fe       5.40000000       0.00000000      12.60000000      55.84500000       79        4
Fe       5.40000000       1.80000000      10.80000000      55.84500000       80        4
Ni       3.60000000       3.60000000       0.00000000      58.69340000       81        2
Cr       3.60000000       5.40000000       1.80000000      51.99610000       82        3
Ni       5.40000000       3.60000000       1.80000000      58.69340000       83        2
Ni       5.40000000       5.40000000       0.00000000      58.69340000       84        2
Fe       3.60000000       3.60000000       3.60000000      55.84500000       85        4
Fe       3.60000000       5.40000000       5.40000000      55.84500000       86        4
Mn       5.40000000       3.60000000       5.40000000      54.93804400       87        5
Co       5.40000000       5.40000000       3.60000000      58.93319400       88        1
Co       3.60000000       3.60000000       7.20000000      58.93319400       89        1
Ni       3.60000000       5.40000000       9.00000000      58.69340000       90        2
Cr       5.40000000       3.60000000       9.00000000      51.99610000       91        3
Fe       5.40000000       5.40000000       7.20000000      55.84500000       92        4
Ni       3.60000000       3.60000000      10.80000000      58.69340000       93        2
Ni       3.60000000       5.40000000      12.60000000      58.69340000       94        2
Ni       5.40000000       3.60000000      12.60000000      58.69340000       95        2
Ni       5.40000000       5.40000000      10.80000000      58.69340000       96        2
Co       3.60000000       7.20000000       0.00000000      58.93319400       97        1
Fe       3.60000000       9.00000000       1.80000000      55.84500000       98        4
Fe       5.40000000       7.20000000       1.80000000      55.84500000       99        4
Cr       5.40000000       9.00000000       0.00000000      51.99610000      100        3
Mn       3.60000000       7.20000000       3.60000000      54.93804400      101        5
Mn       3.60000000       9.00000000       5.40000000      54.93804400      102        5
Mn       5.40000000       7.20000000       5.40000000      54.93804400      103        5
Fe       5.40000000       9.00000000       3.60000000      55.84500000      104        4
Fe       3.60000000       7.20000000       7.20000000      55.84500000      105        4
Mn       3.60000000       9.00000000       9.00000000      54.93804400      106        5
Cr       5.40000000       7.20000000       9.00000000      51.99610000      107        3
Co       5.40000000       9.00000000       7.20000000      58.93319400      108        1
Fe       3.60000000       7.20000000      10.80000000      55.84500000      109        4
Fe       3.60000000       9.00000000      12.60000000      55.84500000      110        4
Mn       5.40000000       7.20000000      12.60000000      54.93804400      111        5
Mn       5.40000000       9.00000000      10.80000000      54.93804400      112        5
Fe       3.60000000      10.80000000       0.00000000      55.84500000      113        4
Co       3.60000000      12.60000000       1.80000000      58.93319400      114        1
Mn       5.40000000      10.80000000       1.80000000      54.93804400      115        5
Mn       5.40000000      12.60000000       0.00000000      54.93804400      116        5
Mn       3.60000000      10.80000000       3.60000000      54.93804400      117        5
Mn       3.60000000      12.60000000       5.40000000      54.93804400      118        5
Fe       5.40000000      10.80000000       5.40000000      55.84500000      119        4
Fe       5.40000000      12.60000000       3.60000000      55.84500000      120        4
Mn       3.60000000      10.80000000       7.20000000      54.93804400      121        5
Cr       3.60000000      12.60000000       9.00000000      51.99610000      122        3
Mn       5.40000000      10.80000000       9.00000000      54.93804400      123        5
Fe       5.40000000      12.60000000       7.20000000      55.84500000      124        4
Co       3.60000000      10.80000000      10.80000000      58.93319400      125        1
Mn       3.60000000      12.60000000      12.60000000      54.93804400      126        5
Mn       5.40000000      10.80000000      12.60000000      54.93804400      127        5
Fe       5.40000000      12.60000000      10.80000000      55.84500000      128        4
Cr       7.20000000       0.00000000       0.00000000      51.99610000      129        3
Co       7.20000000       1.80000000       1.80000000      58.93319400      130        1
Cr       9.00000000       0.00000000       1.80000000      51.99610000      131        3
Ni       9.00000000       1.80000000       0.00000000      58.69340000      132        2
Mn       7.20000000       0.00000000       3.60000000      54.93804400      133        5
Co       7.20000000       1.80000000       5.40000000      58.93319400      134        1
Fe       9.00000000       0.00000000       5.40000000      55.84500000      135        4
Cr       9.00000000       1.80000000       3.60000000      51.99610000      136        3
Cr       7.20000000       0.00000000       7.20000000      51.99610000      137        3
Co       7.20000000       1.80000000       9.00000000      58.93319400      138        1
Mn       9.00000000       0.00000000       9.00000000      54.93804400      139        5
Co       9.00000000       1.80000000       7.20000000      58.93319400      140        1
Mn       7.20000000       0.00000000      10.80000000      54.93804400      141        5
Ni       7.20000000       1.80000000      12.60000000      58.69340000      142        2
Co       9.00000000       0.00000000      12.60000000      58.93319400      143        1
Mn       9.00000000       1.80000000      10.80000000      54.93804400      144        5
Ni       7.20000000       3.60000000       0.00000000      58.69340000      145        2
Cr       7.20000000       5.40000000       1.80000000      51.99610000      146        3
Ni       9.00000000       3.60000000       1.80000000      58.69340000      147        2
Ni       9.00000000       5.40000000       0.00000000      58.69340000      148        2
Mn       7.20000000       3.60000000       3.60000000      54.93804400      149        5
Co       7.20000000       5.40000000       5.40000000      58.93319400      150        1
Cr       9.00000000       3.60000000       5.40000000      51.99610000      151        3
Ni       9.00000000       5.40000000       3.60000000      58.69340000      152        2
Mn       7.20000000       3.60000000       7.20000000      54.93804400      153        5
Co       7.20000000       5.40000000       9.00000000      58.93319400      154        1
Cr       9.00000000       3.60000000       9.00000000      51.99610000      155        3
Mn       9.00000000       5.40000000       7.20000000      54.93804400      156        5
Fe       7.20000000       3.60000000      10.80000000      55.84500000      157        4
Cr       7.20000000       5.40000000      12.60000000      51.99610000      158        3
Ni       9.00000000       3.60000000      12.60000000      58.69340000      159        2
Mn       9.00000000       5.40000000      10.80000000      54.93804400      160        5
Ni       7.20000000       7.20000000       0.00000000      58.69340000      161        2
Co       7.20000000       9.00000000       1.80000000      58.93319400      162        1
Ni       9.00000000       7.20000000       1.80000000      58.69340000      163        2
Cr       9.00000000       9.00000000       0.00000000      51.99610000      164        3
Cr       7.20000000       7.20000000       3.60000000      51.99610000      165        3
Cr       7.20000000       9.00000000       5.40000000      51.99610000      166        3
Fe       9.00000000       7.20000000       5.40000000      55.84500000      167        4
Fe       9.00000000       9.00000000       3.60000000      55.84500000      168        4
Mn       7.20000000       7.20000000       7.20000000      54.93804400      169        5
Fe       7.20000000       9.00000000       9.00000000      55.84500000      170        4
Mn       9.00000000       7.20000000       9.00000000      54.93804400      171        5
Co       9.00000000       9.00000000       7.20000000      58.93319400      172        1
Co       7.20000000       7.20000000      10.80000000      58.93319400      173        1
Co       7.20000000       9.00000000      12.60000000      58.93319400      174        1
Ni       9.00000000       7.20000000      12.60000000      58.69340000      175        2
Cr       9.00000000       9.00000000      10.80000000      51.99610000      176        3
Mn       7.20000000      10.80000000       0.00000000      54.93804400      177        5
Co       7.20000000      12.60000000       1.80000000      58.93319400      178        1
Mn       9.00000000      10.80000000       1.80000000      54.93804400      179        5
Fe       9.00000000      12.60000000       0.00000000      55.84500000      180        4
Mn       7.20000000      10.80000000       3.60000000      54.93804400      181        5
Co       7.20000000      12.60000000       5.40000000      58.93319400      182        1
Fe       9.00000000      10.80000000       5.40000000      55.84500000      183        4
Cr       9.00000000      12.60000000       3.60000000      51.99610000      184        3
Mn       7.20000000      10.80000000       7.20000000      54.93804400      185        5
Co       7.20000000      12.60000000       9.00000000      58.93319400      186        1
Mn       9.00000000      10.80000000       9.00000000      54.93804400      187        5
Mn       9.00000000      12.60000000       7.20000000      54.93804400      188        5
Mn       7.20000000      10.80000000      10.80000000      54.93804400      189        5
Co       7.20000000      12.60000000      12.60000000      58.93319400      190        1
Fe       9.00000000      10.80000000      12.60000000      55.84500000      191        4
Mn       9.00000000      12.60000000      10.80000000      54.93804400      192        5
Ni      10.80000000       0.00000000       0.00000000      58.69340000      193        2
Ni      10.80000000       1.80000000       1.80000000      58.69340000      194        2
Ni      12.60000000       0.00000000       1.80000000      58.69340000      195        2
Cr      12.60000000       1.80000000       0.00000000      51.99610000      196        3
Ni      10.80000000       0.00000000       3.60000000      58.69340000      197        2
Ni      10.80000000       1.80000000       5.40000000      58.69340000      198        2
Ni      12.60000000       0.00000000       5.40000000      58.69340000      199        2
Cr      12.60000000       1.80000000       3.60000000      51.99610000      200        3
Cr      10.80000000       0.00000000       7.20000000      51.99610000      201        3
Co      10.80000000       1.80000000       9.00000000      58.93319400      202        1
Cr      12.60000000       0.00000000       9.00000000      51.99610000      203        3
Cr      12.60000000       1.80000000       7.20000000      51.99610000      204        3
Co      10.80000000       0.00000000      10.80000000      58.93319400      205        1
Cr      10.80000000       1.80000000      12.60000000      51.99610000      206        3
Co      12.60000000       0.00000000      12.60000000      58.93319400      207        1
Mn      12.60000000       1.80000000      10.80000000      54.93804400      208        5
Ni      10.80000000       3.60000000       0.00000000      58.69340000      209        2
Ni      10.80000000       5.40000000       1.80000000      58.69340000      210        2
Ni      12.60000000       3.60000000       1.80000000      58.69340000      211        2
Cr      12.60000000       5.40000000       0.00000000      51.99610000      212        3
Ni      10.80000000       3.60000000       3.60000000      58.69340000      213        2
Co      10.80000000       5.40000000       5.40000000      58.93319400      214        1
Co      12.60000000       3.60000000       5.40000000      58.93319400      215        1
Cr      12.60000000       5.40000000       3.60000000      51.99610000      216        3
Mn      10.80000000       3.60000000       7.20000000      54.93804400      217        5
Co      10.80000000       5.40000000       9.00000000      58.93319400      218        1
Fe      12.60000000       3.60000000       9.00000000      55.84500000      219        4
Mn      12.60000000       5.40000000       7.20000000      54.93804400      220        5
Fe      10.80000000       3.60000000      10.80000000      55.84500000      221        4
Ni      10.80000000       5.40000000      12.60000000      58.69340000      222        2
Co      12.60000000       3.60000000      12.60000000      58.93319400      223        1
Cr      12.60000000       5.40000000      10.80000000      51.99610000      224        3
Ni      10.80000000       7.20000000       0.00000000      58.69340000      225        2
Ni      10.80000000       9.00000000       1.80000000      58.69340000      226        2
Ni      12.60000000       7.20000000       1.80000000      58.69340000      227        2
Cr      12.60000000       9.00000000       0.00000000      51.99610000      228        3
Cr      10.80000000       7.20000000       3.60000000      51.99610000      229        3
Mn      10.80000000       9.00000000       5.40000000      54.93804400      230        5
Co      12.60000000       7.20000000       5.40000000      58.93319400      231        1
Cr      12.60000000       9.00000000       3.60000000      51.99610000      232        3
Cr      10.80000000       7.20000000       7.20000000      51.99610000      233        3
Co      10.80000000       9.00000000       9.00000000      58.93319400      234        1
Mn      12.60000000       7.20000000       9.00000000      54.93804400      235        5
Fe      12.60000000       9.00000000       7.20000000      55.84500000      236        4
Fe      10.80000000       7.20000000      10.80000000      55.84500000      237        4
Ni      10.80000000       9.00000000      12.60000000      58.69340000      238        2
Co      12.60000000       7.20000000      12.60000000      58.93319400      239        1
Cr      12.60000000       9.00000000      10.80000000      51.99610000      240        3
Fe      10.80000000      10.80000000       0.00000000      55.84500000      241        4
Ni      10.80000000      12.60000000       1.80000000      58.69340000      242        2
Ni      12.60000000      10.80000000       1.80000000      58.69340000      243        2
Ni      12.60000000      12.60000000       0.00000000      58.69340000      244        2
Ni      10.80000000      10.80000000       3.60000000      58.69340000      245        2
Ni      10.80000000      12.60000000       5.40000000      58.69340000      246        2
Co      12.60000000      10.80000000       5.40000000      58.93319400      247        1
Cr      12.60000000      12.60000000       3.60000000      51.99610000      248        3
Cr      10.80000000      10.80000000       7.20000000      51.99610000      249        3
Fe      10.80000000      12.60000000       9.00000000      55.84500000      250        4
Co      12.60000000      10.80000000       9.00000000      58.93319400      251        1
Ni      12.60000000      12.60000000       7.20000000      58.69340000      252        2
Fe      10.80000000      10.80000000      10.80000000      55.84500000      253        4
Cr      10.80000000      12.60000000      12.60000000      51.99610000      254        3
Co      12.60000000      10.80000000      12.60000000      58.93319400      255        1
Mn      12.60000000      12.60000000      10.80000000      54.93804400      256        5
