256
Lattice="14.4 0.0 0.0 0.0 14.4 0.0 0.0 0.0 14.4" Properties=species:S:1:pos:R:3:masses:R:1:id:I:1:type:I:1 comment="(written by ASE)" energy=-1027.05438948709 pbc="T T T"
Mn       0.00000000       0.00000000       0.00000000      54.93804400        1        5
Mn       0.00000000       1.80000000       1.80000000      54.93804400        2        5
Co       1.80000000       0.00000000       1.80000000      58.93319400        3        1
Fe       1.80000000       1.80000000       0.00000000      55.84500000        4        4
Fe       0.00000000       0.00000000       3.60000000      55.84500000        5        4
Co       0.00000000       1.80000000       5.40000000      58.93319400        6        1
Mn       1.80000000       0.00000000       5.40000000      54.93804400        7        5
Co       1.80000000       1.80000000       3.60000000      58.93319400        8        1
Fe       0.00000000       0.00000000       7.20000000      55.84500000        9        4
Ni       0.00000000       1.80000000       9.00000000      58.69340000       10        2
Cr       1.80000000       0.00000000       9.00000000      51.99610000       11        3
Co       1.80000000       1.80000000       7.20000000      58.93319400       12        1
Mn       0.00000000       0.00000000      10.80000000      54.93804400       13        5
Fe       0.00000000       1.80000000      12.60000000      55.84500000       14        4
Co       1.80000000       0.00000000      12.60000000      58.93319400       15        1
Ni       1.80000000       1.80000000      10.80000000      58.69340000       16        2
Cr       0.00000000       3.60000000       0.00000000      51.99610000       17        3
Cr       0.00000000       5.40000000       1.80000000      51.99610000       18        3
Ni       1.80000000       3.60000000       1.80000000      58.69340000       19        2
Cr       1.80000000       5.40000000       0.00000000      51.99610000       20        3
Fe       0.00000000       3.60000000       3.60000000      55.84500000       21        4
Co       0.00000000       5.40000000       5.40000000      58.93319400       22        1
Fe       1.80000000       3.60000000       5.40000000      55.84500000       23        4
Ni       1.80000000       5.40000000       3.60000000      58.69340000       24        2
Mn       0.00000000       3.60000000       7.20000000      54.93804400       25        5
Mn       0.00000000       5.40000000       9.00000000      54.93804400       26        5
Fe       1.80000000       3.60000000       9.00000000      55.84500000       27        4
Co       1.80000000       5.40000000       7.20000000      58.93319400       28        1
Mn       0.00000000       3.60000000      10.80000000      54.93804400       29        5
Cr       0.00000000       5.40000000      12.60000000      51.99610000       30        3
Ni       1.80000000       3.60000000      12.60000000      58.69340000       31        2
Fe       1.80000000       5.40000000      10.80000000      55.84500000       32        4
Cr       0.00000000       7.20000000       0.00000000      51.99610000       33        3
Cr       0.00000000       9.00000000       1.80000000      51.99610000       34        3
Cr       1.80000000       7.20000000       1.80000000      51.99610000       35        3
Fe       1.80000000       9.00000000       0.00000000      55.84500000       36        4
Ni       0.00000000       7.20000000       3.60000000      58.69340000       37        2
Fe       0.00000000       9.00000000       5.40000000      55.84500000       38        4
Mn       1.80000000       7.20000000       5.40000000      54.93804400       39        5
Co       1.80000000       9.00000000       3.60000000      58.93319400       40        1
Mn       0.00000000       7.20000000       7.20000000      54.93804400       41        5
Fe       0.00000000       9.00000000       9.00000000      55.84500000       42        4
Co       1.80000000       7.20000000       9.00000000      58.93319400       43        1
Co       1.80000000       9.00000000       7.20000000      58.93319400       44        1
Ni       0.00000000       7.20000000      10.80000000      58.69340000       45        2
Mn       0.00000000       9.00000000      12.60000000      54.93804400       46        5
Ni       1.80000000       7.20000000      12.60000000      58.69340000       47        2
Fe       1.80000000       9.00000000      10.80000000      55.84500000       48        4
Mn       0.00000000      10.80000000       0.00000000      54.93804400       49        5
Co       0.00000000      12.60000000       1.80000000      58.93319400       50        1
Co       1.80000000      10.80000000       1.80000000      58.93319400       51        1
Mn       1.80000000      12.60000000       0.00000000      54.93804400       52        5
Fe       0.00000000      10.80000000       3.60000000      55.84500000       53        4
Co       0.00000000      12.60000000       5.40000000      58.93319400       54        1
Fe       1.80000000      10.80000000       5.40000000      55.84500000       55        4
Mn       1.80000000      12.60000000       3.60000000      54.93804400       56        5
Mn       0.00000000      10.80000000       7.20000000      54.93804400       57        5
Cr       0.00000000      12.60000000       9.00000000      51.99610000       58        3
Co       1.80000000      10.80000000       9.00000000      58.93319400       59        1
Co       1.80000000      12.60000000       7.20000000      58.93319400       60        1
Mn       0.00000000      10.80000000      10.80000000      54.93804400       61        5
Co       0.00000000      12.60000000      12.60000000      58.93319400       62        1
Co       1.80000000      10.80000000      12.60000000      58.93319400       63        1
Mn       1.80000000      12.60000000      10.80000000      54.93804400       64        5
Mn       3.60000000       0.00000000       0.00000000      54.93804400       65        5
Mn       3.60000000       1.80000000       1.80000000      54.93804400       66        5
Mn       5.40000000       0.00000000       1.80000000      54.93804400       67        5
Ni       5.40000000       1.80000000       0.00000000      58.69340000       68        2
Mn       3.60000000       0.00000000       3.60000000      54.93804400       69        5
Co       3.60000000       1.80000000       5.40000000      58.93319400       70        1
Mn       5.40000000       0.00000000       5.40000000      54.93804400       71        5
Fe       5.40000000       1.80000000       3.60000000      55.84500000       72        4
Fe       3.60000000       0.00000000       7.20000000      55.84500000       73        4
Ni       3.60000000       1.80000000       9.00000000      58.69340000       74        2
Ni       5.40000000       0.00000000       9.00000000      58.69340000       75        2
Fe       5.40000000       1.80000000       7.20000000      55.84500000       76        4
Fe       3.60000000       0.00000000      10.80000000      55.84500000       77        4
Ni       3.60000000       1.80000000      12.60000000      58.69340000       78        2
Fe       5.40000000       0.00000000      12.60000000      55.84500000       79        4
Cr       5.40000000       1.80000000      10.80000000      51.99610000       80        3
Cr       3.60000000       3.60000000       0.00000000      51.99610000       81        3
Cr       3.60000000       5.40000000       1.80000000      51.99610000       82        3
Ni       5.40000000       3.60000000       1.80000000      58.69340000       83        2
Cr       5.40000000       5.40000000       0.00000000      51.99610000       84        3
Ni       3.60000000       3.60000000       3.60000000      58.69340000       85        2
Co       3.60000000       5.40000000       5.40000000      58.93319400       86        1
Cr       5.40000000       3.60000000       5.40000000      51.99610000       87        3
Cr       5.40000000       5.40000000       3.60000000      51.99610000       88        3
Mn       3.60000000       3.60000000       7.20000000      54.93804400       89        5
Mn       3.60000000       5.40000000       9.00000000      54.93804400       90        5
Cr       5.40000000       3.60000000       9.00000000      51.99610000       91        3
Co       5.40000000       5.40000000       7.20000000      58.93319400       92        1
Ni       3.60000000       3.60000000      10.80000000      58.69340000       93        2
Ni       3.60000000       5.40000000      12.60000000      58.69340000       94        2
Cr       5.40000000       3.60000000      12.60000000      51.99610000       95        3
Cr       5.40000000       5.40000000      10.80000000      51.99610000       96        3
Cr       3.60000000       7.20000000       0.00000000      51.99610000       97        3
Mn       3.60000000       9.00000000       1.80000000      54.93804400       98        5
Cr       5.40000000       7.20000000       1.80000000      51.99610000       99        3
Ni       5.40000000       9.00000000       0.00000000      58.69340000      100        2
Fe       3.60000000       7.20000000       3.60000000      55.84500000      101        4
Mn       3.60000000       9.00000000       5.40000000      54.93804400      102        5
Mn       5.40000000       7.20000000       5.40000000      54.93804400      103        5
Co       5.40000000       9.00000000       3.60000000      58.93319400      104        1
Mn       3.60000000       7.20000000       7.20000000      54.93804400      105        5
Mn       3.60000000       9.00000000       9.00000000      54.93804400      106        5
Fe       5.40000000       7.20000000       9.00000000      55.84500000      107        4
Co       5.40000000       9.00000000       7.20000000      58.93319400      108        1
Ni       3.60000000       7.20000000      10.80000000      58.69340000      109        2
Ni       3.60000000       9.00000000      12.60000000      58.69340000      110        2
Cr       5.40000000       7.20000000      12.60000000      51.99610000      111        3
Ni       5.40000000       9.00000000      10.80000000      58.69340000      112        2
Mn       3.60000000      10.80000000       0.00000000      54.93804400      113        5
Co       3.60000000      12.60000000       1.80000000      58.93319400      114        1
Co       5.40000000      10.80000000       1.80000000      58.93319400      115        1
Mn       5.40000000      12.60000000       0.00000000      54.93804400      116        5
Mn       3.60000000      10.80000000       3.60000000      54.93804400      117        5
Co       3.60000000      12.60000000       5.40000000      58.93319400      118        1
Mn       5.40000000      10.80000000       5.40000000      54.93804400      119        5
Co       5.40000000      12.60000000       3.60000000      58.93319400      120        1
Mn       3.60000000      10.80000000       7.20000000      54.93804400      121        5
Mn       3.60000000      12.60000000       9.00000000      54.93804400      122        5
Co       5.40000000      10.80000000       9.00000000      58.93319400      123        1
Co       5.40000000      12.60000000       7.20000000      58.93319400      124        1
Co       3.60000000      10.80000000      10.80000000      58.93319400      125        1
Co       3.60000000      12.60000000      12.60000000      58.93319400      126        1
Fe       5.40000000      10.80000000      12.60000000      55.84500000      127        4
Mn       5.40000000      12.60000000      10.80000000      54.93804400      128        5
Mn       7.20000000       0.00000000       0.00000000      54.93804400      129        5
Ni       7.20000000       1.80000000       1.80000000      58.69340000      130        2
Fe       9.00000000       0.00000000       1.80000000      55.84500000      131        4
Ni       9.00000000       1.80000000       0.00000000      58.69340000      132        2
Ni       7.20000000       0.00000000       3.60000000      58.69340000      133        2
Ni       7.20000000       1.80000000       5.40000000      58.69340000      134        2
Fe       9.00000000       0.00000000       5.40000000      55.84500000      135        4
Mn       9.00000000       1.80000000       3.60000000      54.93804400      136        5
Mn       7.20000000       0.00000000       7.20000000      54.93804400      137        5
Ni       7.20000000       1.80000000       9.00000000      58.69340000      138        2
Fe       9.00000000       0.00000000       9.00000000      55.84500000      139        4
Ni       9.00000000       1.80000000       7.20000000      58.69340000      140        2
Ni       7.20000000       0.00000000      10.80000000      58.69340000      141        2
Cr       7.20000000       1.80000000      12.60000000      51.99610000      142        3
Fe       9.00000000       0.00000000      12.60000000      55.84500000      143        4
Ni       9.00000000       1.80000000      10.80000000      58.69340000      144        2
Cr       7.20000000       3.60000000       0.00000000      51.99610000      145        3
Cr       7.20000000       5.40000000       1.80000000      51.99610000      146        3
Cr       9.00000000       3.60000000       1.80000000      51.99610000      147        3
Cr       9.00000000       5.40000000       0.00000000      51.99610000      148        3
Cr       7.20000000       3.60000000       3.60000000      51.99610000      149        3
Cr       7.20000000       5.40000000       5.40000000      51.99610000      150        3
Cr       9.00000000       3.60000000       5.40000000      51.99610000      151        3
Cr       9.00000000       5.40000000       3.60000000      51.99610000      152        3
Cr       7.20000000       3.60000000       7.20000000      51.99610000      153        3
Fe       7.20000000       5.40000000       9.00000000      55.84500000      154        4
Ni       9.00000000       3.60000000       9.00000000      58.69340000      155        2
Fe       9.00000000       5.40000000       7.20000000      55.84500000      156        4
Cr       7.20000000       3.60000000      10.80000000      51.99610000      157        3
Ni       7.20000000       5.40000000      12.60000000      58.69340000      158        2
Cr       9.00000000       3.60000000      12.60000000      51.99610000      159        3
Mn       9.00000000       5.40000000      10.80000000      54.93804400      160        5
Ni       7.20000000       7.20000000       0.00000000      58.69340000      161        2
Fe       7.20000000       9.00000000       1.80000000      55.84500000      162        4
Cr       9.00000000       7.20000000       1.80000000      51.99610000      163        3
Ni       9.00000000       9.00000000       0.00000000      58.69340000      164        2
Cr       7.20000000       7.20000000       3.60000000      51.99610000      165        3
Fe       7.20000000       9.00000000       5.40000000      55.84500000      166        4
Ni       9.00000000       7.20000000       5.40000000      58.69340000      167        2
Cr       9.00000000       9.00000000       3.60000000      51.99610000      168        3
Mn       7.20000000       7.20000000       7.20000000      54.93804400      169        5
Mn       7.20000000       9.00000000       9.00000000      54.93804400      170        5
Co       9.00000000       7.20000000       9.00000000      58.93319400      171        1
Fe       9.00000000       9.00000000       7.20000000      55.84500000      172        4
Ni       7.20000000       7.20000000      10.80000000      58.69340000      173        2
Ni       7.20000000       9.00000000      12.60000000      58.69340000      174        2
Fe       9.00000000       7.20000000      12.60000000      55.84500000      175        4
Mn       9.00000000       9.00000000      10.80000000      54.93804400      176        5
Fe       7.20000000      10.80000000       0.00000000      55.84500000      177        4
Mn       7.20000000      12.60000000       1.80000000      54.93804400      178        5
Co       9.00000000      10.80000000       1.80000000      58.93319400      179        1
Co       9.00000000      12.60000000       0.00000000      58.93319400      180        1
Mn       7.20000000      10.80000000       3.60000000      54.93804400      181        5
Fe       7.20000000      12.60000000       5.40000000      55.84500000      182        4
Ni       9.00000000      10.80000000       5.40000000      58.69340000      183        2
Fe       9.00000000      12.60000000       3.60000000      55.84500000      184        4
Mn       7.20000000      10.80000000       7.20000000      54.93804400      185        5
Fe       7.20000000      12.60000000       9.00000000      55.84500000      186        4
Co       9.00000000      10.80000000       9.00000000      58.93319400      187        1
Co       9.00000000      12.60000000       7.20000000      58.93319400      188        1
Fe       7.20000000      10.80000000      10.80000000      55.84500000      189        4
Co       7.20000000      12.60000000      12.60000000      58.93319400      190        1
Fe       9.00000000      10.80000000      12.60000000      55.84500000      191        4
Mn       9.00000000      12.60000000      10.80000000      54.93804400      192        5
Mn      10.80000000       0.00000000       0.00000000      54.93804400      193        5
Mn      10.80000000       1.80000000       1.80000000      54.93804400      194        5
Co      12.60000000       0.00000000       1.80000000      58.93319400      195        1
Ni      12.60000000       1.80000000       0.00000000      58.69340000      196        2
Co      10.80000000       0.00000000       3.60000000      58.93319400      197        1
Ni      10.80000000       1.80000000       5.40000000      58.69340000      198        2
Mn      12.60000000       0.00000000       5.40000000      54.93804400      199        5
Fe      12.60000000       1.80000000       3.60000000      55.84500000      200        4
Fe      10.80000000       0.00000000       7.20000000      55.84500000      201        4
Fe      10.80000000       1.80000000       9.00000000      55.84500000      202        4
Cr      12.60000000       0.00000000       9.00000000      51.99610000      203        3
Fe      12.60000000       1.80000000       7.20000000      55.84500000      204        4
Co      10.80000000       0.00000000      10.80000000      58.93319400      205        1
Fe      10.80000000       1.80000000      12.60000000      55.84500000      206        4
Co      12.60000000       0.00000000      12.60000000      58.93319400      207        1
Mn      12.60000000       1.80000000      10.80000000      54.93804400      208        5
Cr      10.80000000       3.60000000       0.00000000      51.99610000      209        3
Cr      10.80000000       5.40000000       1.80000000      51.99610000      210        3
Cr      12.60000000       3.60000000       1.80000000      51.99610000      211        3
Cr      12.60000000       5.40000000       0.00000000      51.99610000      212        3
Cr      10.80000000       3.60000000       3.60000000      51.99610000      213        3
Ni      10.80000000       5.40000000       5.40000000      58.69340000      214        2
Ni      12.60000000       3.60000000       5.40000000      58.69340000      215        2
Cr      12.60000000       5.40000000       3.60000000      51.99610000      216        3
Fe      10.80000000       3.60000000       7.20000000      55.84500000      217        4
Mn      10.80000000       5.40000000       9.00000000      54.93804400      218        5
Co      12.60000000       3.60000000       9.00000000      58.93319400      219        1
Co      12.60000000       5.40000000       7.20000000      58.93319400      220        1
Co      10.80000000       3.60000000      10.80000000      58.93319400      221        1
Mn      10.80000000       5.40000000      12.60000000      54.93804400      222        5
Ni      12.60000000       3.60000000      12.60000000      58.69340000      223        2
Fe      12.60000000       5.40000000      10.80000000      55.84500000      224        4
Ni      10.80000000       7.20000000       0.00000000      58.69340000      225        2
Cr      10.80000000       9.00000000       1.80000000      51.99610000      226        3
Cr      12.60000000       7.20000000       1.80000000      51.99610000      227        3
Fe      12.60000000       9.00000000       0.00000000      55.84500000      228        4
Cr      10.80000000       7.20000000       3.60000000      51.99610000      229        3
Ni      10.80000000       9.00000000       5.40000000      58.69340000      230        2
Fe      12.60000000       7.20000000       5.40000000      55.84500000      231        4
Ni      12.60000000       9.00000000       3.60000000      58.69340000      232        2
Mn      10.80000000       7.20000000       7.20000000      54.93804400      233        5
Mn      10.80000000       9.00000000       9.00000000      54.93804400      234        5
Fe      12.60000000       7.20000000       9.00000000      55.84500000      235        4
Co      12.60000000       9.00000000       7.20000000      58.93319400      236        1
Co      10.80000000       7.20000000      10.80000000      58.93319400      237        1
Mn      10.80000000       9.00000000      12.60000000      54.93804400      238        5
Fe      12.60000000       7.20000000      12.60000000      55.84500000      239        4
Co      12.60000000       9.00000000      10.80000000      58.93319400      240        1
Mn      10.80000000      10.80000000       0.00000000      54.93804400      241        5
Mn      10.80000000      12.60000000       1.80000000      54.93804400      242        5
Co      12.60000000      10.80000000       1.80000000      58.93319400      243        1
Fe      12.60000000      12.60000000       0.00000000      55.84500000      244        4
Fe      10.80000000      10.80000000       3.60000000      55.84500000      245        4
Mn      10.80000000      12.60000000       5.40000000      54.93804400      246        5
Co      12.60000000      10.80000000       5.40000000      58.93319400      247        1
Mn      12.60000000      12.60000000       3.60000000      54.93804400      248        5
Fe      10.80000000      10.80000000       7.20000000      55.84500000      249        4
Mn      10.80000000      12.60000000       9.00000000      54.93804400      250        5
Co      12.60000000      10.80000000       9.00000000      58.93319400      251        1
Mn      12.60000000      12.60000000       7.20000000      54.93804400      252        5
Fe      10.80000000      10.80000000      10.80000000      55.84500000      253        4
Ni      10.80000000      12.60000000      12.60000000      58.69340000      254        2
Ni      12.60000000      10.80000000      12.60000000      58.69340000      255        2
Cr      12.60000000      12.60000000      10.80000000      51.99610000      256        3
