256
Lattice="14.4 0.0 0.0 0.0 14.4 0.0 0.0 0.0 14.4" Properties=species:S:1:pos:R:3:masses:R:1:id:I:1:type:I:1 comment="(written by ASE)" energy=-1019.18090461333 pbc="T T T"
Mn       0.00000000       0.00000000       0.00000000      54.93804400        1        5
Fe       0.00000000       1.80000000       1.80000000      55.84500000        2        4
Fe       1.80000000       0.00000000       1.80000000      55.84500000        3        4
Ni       1.80000000       1.80000000       0.00000000      58.69340000        4        2
Ni       0.00000000       0.00000000       3.60000000      58.69340000        5        2
Fe       0.00000000       1.80000000       5.40000000      55.84500000        6        4
Fe       1.80000000       0.00000000       5.40000000      55.84500000        7        4
Ni       1.80000000       1.80000000       3.60000000      58.69340000        8        2
Ni       0.00000000       0.00000000       7.20000000      58.69340000        9        2
Fe       0.00000000       1.80000000       9.00000000      55.84500000       10        4
Ni       1.80000000       0.00000000       9.00000000      58.69340000       11        2
Ni       1.80000000       1.80000000       7.20000000      58.69340000       12        2
Ni       0.00000000       0.00000000      10.80000000      58.69340000       13        2
Fe       0.00000000       1.80000000      12.60000000      55.84500000       14        4
Fe       1.80000000       0.00000000      12.60000000      55.84500000       15        4
Fe       1.80000000       1.80000000      10.80000000      55.84500000       16        4
Co       0.00000000       3.60000000       0.00000000      58.93319400       17        1
Cr       0.00000000       5.40000000       1.80000000      51.99610000       18        3
Cr       1.80000000       3.60000000       1.80000000      51.99610000       19        3
Co       1.80000000       5.40000000       0.00000000      58.93319400       20        1
Ni       0.00000000       3.60000000       3.60000000      58.69340000       21        2
Fe       0.00000000       5.40000000       5.40000000      55.84500000       22        4
Fe       1.80000000       3.60000000       5.40000000      55.84500000       23        4
Ni       1.80000000       5.40000000       3.60000000      58.69340000       24        2
Ni       0.00000000       3.60000000       7.20000000      58.69340000       25        2
Cr       0.00000000       5.40000000       9.00000000      51.99610000       26        3
Ni       1.80000000       3.60000000       9.00000000      58.69340000       27        2
Ni       1.80000000       5.40000000       7.20000000      58.69340000       28        2
Co       0.00000000       3.60000000      10.80000000      58.93319400       29        1
Cr       0.00000000       5.40000000      12.60000000      51.99610000       30        3
Fe       1.80000000       3.60000000      12.60000000      55.84500000       31        4
Cr       1.80000000       5.40000000      10.80000000      51.99610000       32        3
Cr       0.00000000       7.20000000       0.00000000      51.99610000       33        3
Cr       0.00000000       9.00000000       1.80000000      51.99610000       34        3
Co       1.80000000       7.20000000       1.80000000      58.93319400       35        1
Cr       1.80000000       9.00000000       0.00000000      51.99610000       36        3
Ni       0.00000000       7.20000000       3.60000000      58.69340000       37        2
Fe       0.00000000       9.00000000       5.40000000      55.84500000       38        4
Fe       1.80000000       7.20000000       5.40000000      55.84500000       39        4
Cr       1.80000000       9.00000000       3.60000000      51.99610000       40        3
Co       0.00000000       7.20000000       7.20000000      58.93319400       41        1
Cr       0.00000000       9.00000000       9.00000000      51.99610000       42        3
Cr       1.80000000       7.20000000       9.00000000      51.99610000       43        3
Cr       1.80000000       9.00000000       7.20000000      51.99610000       44        3
Co       0.00000000       7.20000000      10.80000000      58.93319400       45        1
Cr       0.00000000       9.00000000      12.60000000      51.99610000       46        3
Cr       1.80000000       7.20000000      12.60000000      51.99610000       47        3
Co       1.80000000       9.00000000      10.80000000      58.93319400       48        1
Co       0.00000000      10.80000000       0.00000000      58.93319400       49        1
Fe       0.00000000      12.60000000       1.80000000      55.84500000       50        4
Ni       1.80000000      10.80000000       1.80000000      58.69340000       51        2
Fe       1.80000000      12.60000000       0.00000000      55.84500000       52        4
Mn       0.00000000      10.80000000       3.60000000      54.93804400       53        5
Ni       0.00000000      12.60000000       5.40000000      58.69340000       54        2
Fe       1.80000000      10.80000000       5.40000000      55.84500000       55        4
Mn       1.80000000      12.60000000       3.60000000      54.93804400       56        5
Fe       0.00000000      10.80000000       7.20000000      55.84500000       57        4
Fe       0.00000000      12.60000000       9.00000000      55.84500000       58        4
Cr       1.80000000      10.80000000       9.00000000      51.99610000       59        3
Co       1.80000000      12.60000000       7.20000000      58.93319400       60        1
Co       0.00000000      10.80000000      10.80000000      58.93319400       61        1
Co       0.00000000      12.60000000      12.60000000      58.93319400       62        1
Cr       1.80000000      10.80000000      12.60000000      51.99610000       63        3
Cr       1.80000000      12.60000000      10.80000000      51.99610000       64        3
Ni       3.60000000       0.00000000       0.00000000      58.69340000       65        2
Fe       3.60000000       1.80000000       1.80000000      55.84500000       66        4
Mn       5.40000000       0.00000000       1.80000000      54.93804400       67        5
Fe       5.40000000       1.80000000       0.00000000      55.84500000       68        4
Mn       3.60000000       0.00000000       3.60000000      54.93804400       69        5
Fe       3.60000000       1.80000000       5.40000000      55.84500000       70        4
Mn       5.40000000       0.00000000       5.40000000      54.93804400       71        5
Mn       5.40000000       1.80000000       3.60000000      54.93804400       72        5
Ni       3.60000000       0.00000000       7.20000000      58.69340000       73        2
Ni       3.60000000       1.80000000       9.00000000      58.69340000       74        2
Fe       5.40000000       0.00000000       9.00000000      55.84500000       75        4
Ni       5.40000000       1.80000000       7.20000000      58.69340000       76        2
Co       3.60000000       0.00000000      10.80000000      58.93319400       77        1
Ni       3.60000000       1.80000000      12.60000000      58.69340000       78        2
Ni       5.40000000       0.00000000      12.60000000      58.69340000       79        2
Ni       5.40000000       1.80000000      10.80000000      58.69340000       80        2
Ni       3.60000000       3.60000000       0.00000000      58.69340000       81        2
Cr       3.60000000       5.40000000       1.80000000      51.99610000       82        3
Ni       5.40000000       3.60000000       1.80000000      58.69340000       83        2
Fe       5.40000000       5.40000000       0.00000000      55.84500000       84        4
Co       3.60000000       3.60000000       3.60000000      58.93319400       85        1
Fe       3.60000000       5.40000000       5.40000000      55.84500000       86        4
Co       5.40000000       3.60000000       5.40000000      58.93319400       87        1
Cr       5.40000000       5.40000000       3.60000000      51.99610000       88        3
Fe       3.60000000       3.60000000       7.20000000      55.84500000       89        4
Ni       3.60000000       5.40000000       9.00000000      58.69340000       90        2
Ni       5.40000000       3.60000000       9.00000000      58.69340000       91        2
Ni       5.40000000       5.40000000       7.20000000      58.69340000       92        2
Fe       3.60000000       3.60000000      10.80000000      55.84500000       93        4
Ni       3.60000000       5.40000000      12.60000000      58.69340000       94        2
Fe       5.40000000       3.60000000      12.60000000      55.84500000       95        4
Ni       5.40000000       5.40000000      10.80000000      58.69340000       96        2
Co       3.60000000       7.20000000       0.00000000      58.93319400       97        1
Fe       3.60000000       9.00000000       1.80000000      55.84500000       98        4
Ni       5.40000000       7.20000000       1.80000000      58.69340000       99        2
Fe       5.40000000       9.00000000       0.00000000      55.84500000      100        4
Co       3.60000000       7.20000000       3.60000000      58.93319400      101        1
Ni       3.60000000       9.00000000       5.40000000      58.69340000      102        2
Cr       5.40000000       7.20000000       5.40000000      51.99610000      103        3
Fe       5.40000000       9.00000000       3.60000000      55.84500000      104        4
Co       3.60000000       7.20000000       7.20000000      58.93319400      105        1
Cr       3.60000000       9.00000000       9.00000000      51.99610000      106        3
Fe       5.40000000       7.20000000       9.00000000      55.84500000      107        4
Co       5.40000000       9.00000000       7.20000000      58.93319400      108        1
Co       3.60000000       7.20000000      10.80000000      58.93319400      109        1
Cr       3.60000000       9.00000000      12.60000000      51.99610000      110        3
Fe       5.40000000       7.20000000      12.60000000      55.84500000      111        4
Ni       5.40000000       9.00000000      10.80000000      58.69340000      112        2
Ni       3.60000000      10.80000000       0.00000000      58.69340000      113        2
Fe       3.60000000      12.60000000       1.80000000      55.84500000      114        4
Ni       5.40000000      10.80000000       1.80000000      58.69340000      115        2
Fe       5.40000000      12.60000000       0.00000000      55.84500000      116        4
Ni       3.60000000      10.80000000       3.60000000      58.69340000      117        2
Co       3.60000000      12.60000000       5.40000000      58.93319400      118        1
Co       5.40000000      10.80000000       5.40000000      58.93319400      119        1
Fe       5.40000000      12.60000000       3.60000000      55.84500000      120        4
Co       3.60000000      10.80000000       7.20000000      58.93319400      121        1
Cr       3.60000000      12.60000000       9.00000000      51.99610000      122        3
Co       5.40000000      10.80000000       9.00000000      58.93319400      123        1
Mn       5.40000000      12.60000000       7.20000000      54.93804400      124        5
Cr       3.60000000      10.80000000      10.80000000      51.99610000      125        3
Ni       3.60000000      12.60000000      12.60000000      58.69340000      126        2
Co       5.40000000      10.80000000      12.60000000      58.93319400      127        1
Cr       5.40000000      12.60000000      10.80000000      51.99610000      128        3
Mn       7.20000000       0.00000000       0.00000000      54.93804400      129        5
Mn       7.20000000       1.80000000       1.80000000      54.93804400      130        5
Mn       9.00000000       0.00000000       1.80000000      54.93804400      131        5
Mn       9.00000000       1.80000000       0.00000000      54.93804400      132        5
Mn       7.20000000       0.00000000       3.60000000      54.93804400      133        5
Co       7.20000000       1.80000000       5.40000000      58.93319400      134        1
Mn       9.00000000       0.00000000       5.40000000      54.93804400      135        5
Co       9.00000000       1.80000000       3.60000000      58.93319400      136        1
Mn       7.20000000       0.00000000       7.20000000      54.93804400      137        5
Fe       7.20000000       1.80000000       9.00000000      55.84500000      138        4
Mn       9.00000000       0.00000000       9.00000000      54.93804400      139        5
Co       9.00000000       1.80000000       7.20000000      58.93319400      140        1
Ni       7.20000000       0.00000000      10.80000000      58.69340000      141        2
Fe       7.20000000       1.80000000      12.60000000      55.84500000      142        4
Mn       9.00000000       0.00000000      12.60000000      54.93804400      143        5
Mn       9.00000000       1.80000000      10.80000000      54.93804400      144        5
Co       7.20000000       3.60000000       0.00000000      58.93319400      145        1
Cr       7.20000000       5.40000000       1.80000000      51.99610000      146        3
Co       9.00000000       3.60000000       1.80000000      58.93319400      147        1
Co       9.00000000       5.40000000       0.00000000      58.93319400      148        1
Co       7.20000000       3.60000000       3.60000000      58.93319400      149        1
Cr       7.20000000       5.40000000       5.40000000      51.99610000      150        3
Cr       9.00000000       3.60000000       5.40000000      51.99610000      151        3
Cr       9.00000000       5.40000000       3.60000000      51.99610000      152        3
Fe       7.20000000       3.60000000       7.20000000      55.84500000      153        4
Ni       7.20000000       5.40000000       9.00000000      58.69340000      154        2
Ni       9.00000000       3.60000000       9.00000000      58.69340000      155        2
Co       9.00000000       5.40000000       7.20000000      58.93319400      156        1
Fe       7.20000000       3.60000000      10.80000000      55.84500000      157        4
Ni       7.20000000       5.40000000      12.60000000      58.69340000      158        2
Mn       9.00000000       3.60000000      12.60000000      54.93804400      159        5
Mn       9.00000000       5.40000000      10.80000000      54.93804400      160        5
Ni       7.20000000       7.20000000       0.00000000      58.69340000      161        2
Co       7.20000000       9.00000000       1.80000000      58.93319400      162        1
Cr       9.00000000       7.20000000       1.80000000      51.99610000      163        3
Mn       9.00000000       9.00000000       0.00000000      54.93804400      164        5
Cr       7.20000000       7.20000000       3.60000000      51.99610000      165        3
Co       7.20000000       9.00000000       5.40000000      58.93319400      166        1
Co       9.00000000       7.20000000       5.40000000      58.93319400      167        1
Co       9.00000000       9.00000000       3.60000000      58.93319400      168        1
Cr       7.20000000       7.20000000       7.20000000      51.99610000      169        3
Mn       7.20000000       9.00000000       9.00000000      54.93804400      170        5
Mn       9.00000000       7.20000000       9.00000000      54.93804400      171        5
Mn       9.00000000       9.00000000       7.20000000      54.93804400      172        5
Fe       7.20000000       7.20000000      10.80000000      55.84500000      173        4
Ni       7.20000000       9.00000000      12.60000000      58.69340000      174        2
Fe       9.00000000       7.20000000      12.60000000      55.84500000      175        4
Fe       9.00000000       9.00000000      10.80000000      55.84500000      176        4
Mn       7.20000000      10.80000000       0.00000000      54.93804400      177        5
Mn       7.20000000      12.60000000       1.80000000      54.93804400      178        5
Mn       9.00000000      10.80000000       1.80000000      54.93804400      179        5
Mn       9.00000000      12.60000000       0.00000000      54.93804400      180        5
Mn       7.20000000      10.80000000       3.60000000      54.93804400      181        5
Mn       7.20000000      12.60000000       5.40000000      54.93804400      182        5
Mn       9.00000000      10.80000000       5.40000000      54.93804400      183        5
Mn       9.00000000      12.60000000       3.60000000      54.93804400      184        5
Mn       7.20000000      10.80000000       7.20000000      54.93804400      185        5
Mn       7.20000000      12.60000000       9.00000000      54.93804400      186        5
Mn       9.00000000      10.80000000       9.00000000      54.93804400      187        5
Mn       9.00000000      12.60000000       7.20000000      54.93804400      188        5
Fe       7.20000000      10.80000000      10.80000000      55.84500000      189        4
Mn       7.20000000      12.60000000      12.60000000      54.93804400      190        5
Mn       9.00000000      10.80000000      12.60000000      54.93804400      191        5
Mn       9.00000000      12.60000000      10.80000000      54.93804400      192        5
Mn      10.80000000       0.00000000       0.00000000      54.93804400      193        5
Fe      10.80000000       1.80000000       1.80000000      55.84500000      194        4
Mn      12.60000000       0.00000000       1.80000000      54.93804400      195        5
Co      12.60000000       1.80000000       0.00000000      58.93319400      196        1
Mn      10.80000000       0.00000000       3.60000000      54.93804400      197        5
Co      10.80000000       1.80000000       5.40000000      58.93319400      198        1
Ni      12.60000000       0.00000000       5.40000000      58.69340000      199        2
Fe      12.60000000       1.80000000       3.60000000      55.84500000      200        4
Fe      10.80000000       0.00000000       7.20000000      55.84500000      201        4
Mn      10.80000000       1.80000000       9.00000000      54.93804400      202        5
Mn      12.60000000       0.00000000       9.00000000      54.93804400      203        5
Ni      12.60000000       1.80000000       7.20000000      58.69340000      204        2
Mn      10.80000000       0.00000000      10.80000000      54.93804400      205        5
Mn      10.80000000       1.80000000      12.60000000      54.93804400      206        5
Mn      12.60000000       0.00000000      12.60000000      54.93804400      207        5
Mn      12.60000000       1.80000000      10.80000000      54.93804400      208        5
Cr      10.80000000       3.60000000       0.00000000      51.99610000      209        3
Cr      10.80000000       5.40000000       1.80000000      51.99610000      210        3
Co      12.60000000       3.60000000       1.80000000      58.93319400      211        1
Cr      12.60000000       5.40000000       0.00000000      51.99610000      212        3
Cr      10.80000000       3.60000000       3.60000000      51.99610000      213        3
Cr      10.80000000       5.40000000       5.40000000      51.99610000      214        3
Co      12.60000000       3.60000000       5.40000000      58.93319400      215        1
Co      12.60000000       5.40000000       3.60000000      58.93319400      216        1
Cr      10.80000000       3.60000000       7.20000000      51.99610000      217        3
Co      10.80000000       5.40000000       9.00000000      58.93319400      218        1
Co      12.60000000       3.60000000       9.00000000      58.93319400      219        1
Cr      12.60000000       5.40000000       7.20000000      51.99610000      220        3
Mn      10.80000000       3.60000000      10.80000000      54.93804400      221        5
Co      10.80000000       5.40000000      12.60000000      58.93319400      222        1
Cr      12.60000000       3.60000000      12.60000000      51.99610000      223        3
Cr      12.60000000       5.40000000      10.80000000      51.99610000      224        3
Cr      10.80000000       7.20000000       0.00000000      51.99610000      225        3
Cr      10.80000000       9.00000000       1.80000000      51.99610000      226        3
Cr      12.60000000       7.20000000       1.80000000      51.99610000      227        3
Co      12.60000000       9.00000000       0.00000000      58.93319400      228        1
Co      10.80000000       7.20000000       3.60000000      58.93319400      229        1
Mn      10.80000000       9.00000000       5.40000000      54.93804400      230        5
Fe      12.60000000       7.20000000       5.40000000      55.84500000      231        4
Ni      12.60000000       9.00000000       3.60000000      58.69340000      232        2
Cr      10.80000000       7.20000000       7.20000000      51.99610000      233        3
Fe      10.80000000       9.00000000       9.00000000      55.84500000      234        4
Cr      12.60000000       7.20000000       9.00000000      51.99610000      235        3
Ni      12.60000000       9.00000000       7.20000000      58.69340000      236        2
Co      10.80000000       7.20000000      10.80000000      58.93319400      237        1
Mn      10.80000000       9.00000000      12.60000000      54.93804400      238        5
Cr      12.60000000       7.20000000      12.60000000      51.99610000      239        3
Co      12.60000000       9.00000000      10.80000000      58.93319400      240        1
Mn      10.80000000      10.80000000       0.00000000      54.93804400      241        5
Mn      10.80000000      12.60000000       1.80000000      54.93804400      242        5
Co      12.60000000      10.80000000       1.80000000      58.93319400      243        1
Mn      12.60000000      12.60000000       0.00000000      54.93804400      244        5
Fe      10.80000000      10.80000000       3.60000000      55.84500000      245        4
Mn      10.80000000      12.60000000       5.40000000      54.93804400      246        5
Fe      12.60000000      10.80000000       5.40000000      55.84500000      247        4
Fe      12.60000000      12.60000000       3.60000000      55.84500000      248        4
Mn      10.80000000      10.80000000       7.20000000      54.93804400      249        5
Mn      10.80000000      12.60000000       9.00000000      54.93804400      250        5
Fe      12.60000000      10.80000000       9.00000000      55.84500000      251        4
Fe      12.60000000      12.60000000       7.20000000      55.84500000      252        4
Mn      10.80000000      10.80000000      10.80000000      54.93804400      253        5
Mn      10.80000000      12.60000000      12.60000000      54.93804400      254        5
Mn      12.60000000      10.80000000      12.60000000      54.93804400      255        5
Mn      12.60000000      12.60000000      10.80000000      54.93804400      256        5
