256
Lattice="14.4 0.0 0.0 0.0 14.4 0.0 0.0 0.0 14.4" Properties=species:S:1:pos:R:3:masses:R:1:id:I:1:type:I:1 comment="(written by ASE)" energy=-1026.83208791949 pbc="T T T"
Fe       0.00000000       0.00000000       0.00000000      55.84500000        1        4
Mn       0.00000000       1.80000000       1.80000000      54.93804400        2        5
Mn       1.80000000       0.00000000       1.80000000      54.93804400        3        5
Fe       1.80000000       1.80000000       0.00000000      55.84500000        4        4
Ni       0.00000000       0.00000000       3.60000000      58.69340000        5        2
Ni       0.00000000       1.80000000       5.40000000      58.69340000        6        2
Fe       1.80000000       0.00000000       5.40000000      55.84500000        7        4
Ni       1.80000000       1.80000000       3.60000000      58.69340000        8        2
Mn       0.00000000       0.00000000       7.20000000      54.93804400        9        5
Ni       0.00000000       1.80000000       9.00000000      58.69340000       10        2
Co       1.80000000       0.00000000       9.00000000      58.93319400       11        1
Co       1.80000000       1.80000000       7.20000000      58.93319400       12        1
Mn       0.00000000       0.00000000      10.80000000      54.93804400       13        5
Cr       0.00000000       1.80000000      12.60000000      51.99610000       14        3
Co       1.80000000       0.00000000      12.60000000      58.93319400       15        1
Mn       1.80000000       1.80000000      10.80000000      54.93804400       16        5
Cr       0.00000000       3.60000000       0.00000000      51.99610000       17        3
Cr       0.00000000       5.40000000       1.80000000      51.99610000       18        3
Ni       1.80000000       3.60000000       1.80000000      58.69340000       19        2
Mn       1.80000000       5.40000000       0.00000000      54.93804400       20        5
Co       0.00000000       3.60000000       3.60000000      58.93319400       21        1
Mn       0.00000000       5.40000000       5.40000000      54.93804400       22        5
Ni       1.80000000       3.60000000       5.40000000      58.69340000       23        2
Mn       1.80000000       5.40000000       3.60000000      54.93804400       24        5
Mn       0.00000000       3.60000000       7.20000000      54.93804400       25        5
Mn       0.00000000       5.40000000       9.00000000      54.93804400       26        5
Ni       1.80000000       3.60000000       9.00000000      58.69340000       27        2
Ni       1.80000000       5.40000000       7.20000000      58.69340000       28        2
Fe       0.00000000       3.60000000      10.80000000      55.84500000       29        4
Cr       0.00000000       5.40000000      12.60000000      51.99610000       30        3
Fe       1.80000000       3.60000000      12.60000000      55.84500000       31        4
Mn       1.80000000       5.40000000      10.80000000      54.93804400       32        5
Fe       0.00000000       7.20000000       0.00000000      55.84500000       33        4
Co       0.00000000       9.00000000       1.80000000      58.93319400       34        1
Co       1.80000000       7.20000000       1.80000000      58.93319400       35        1
Ni       1.80000000       9.00000000       0.00000000      58.69340000       36        2
Mn       0.00000000       7.20000000       3.60000000      54.93804400       37        5
Co       0.00000000       9.00000000       5.40000000      58.93319400       38        1
Ni       1.80000000       7.20000000       5.40000000      58.69340000       39        2
Fe       1.80000000       9.00000000       3.60000000      55.84500000       40        4
Mn       0.00000000       7.20000000       7.20000000      54.93804400       41        5
Mn       0.00000000       9.00000000       9.00000000      54.93804400       42        5
Ni       1.80000000       7.20000000       9.00000000      58.69340000       43        2
Co       1.80000000       9.00000000       7.20000000      58.93319400       44        1
Co       0.00000000       7.20000000      10.80000000      58.93319400       45        1
Fe       0.00000000       9.00000000      12.60000000      55.84500000       46        4
Co       1.80000000       7.20000000      12.60000000      58.93319400       47        1
Ni       1.80000000       9.00000000      10.80000000      58.69340000       48        2
Co       0.00000000      10.80000000       0.00000000      58.93319400       49        1
Mn       0.00000000      12.60000000       1.80000000      54.93804400       50        5
Mn       1.80000000      10.80000000       1.80000000      54.93804400       51        5
Ni       1.80000000      12.60000000       0.00000000      58.69340000       52        2
Ni       0.00000000      10.80000000       3.60000000      58.69340000       53        2
Ni       0.00000000      12.60000000       5.40000000      58.69340000       54        2
Mn       1.80000000      10.80000000       5.40000000      54.93804400       55        5
Co       1.80000000      12.60000000       3.60000000      58.93319400       56        1
Mn       0.00000000      10.80000000       7.20000000      54.93804400       57        5
Ni       0.00000000      12.60000000       9.00000000      58.69340000       58        2
Co       1.80000000      10.80000000       9.00000000      58.93319400       59        1
Co       1.80000000      12.60000000       7.20000000      58.93319400       60        1
Mn       0.00000000      10.80000000      10.80000000      54.93804400       61        5
Co       0.00000000      12.60000000      12.60000000      58.93319400       62        1
Co       1.80000000      10.80000000      12.60000000      58.93319400       63        1
Ni       1.80000000      12.60000000      10.80000000      58.69340000       64        2
Fe       3.60000000       0.00000000       0.00000000      55.84500000       65        4
Mn       3.60000000       1.80000000       1.80000000      54.93804400       66        5
Ni       5.40000000       0.00000000       1.80000000      58.69340000       67        2
Cr       5.40000000       1.80000000       0.00000000      51.99610000       68        3
Fe       3.60000000       0.00000000       3.60000000      55.84500000       69        4
Mn       3.60000000       1.80000000       5.40000000      54.93804400       70        5
Ni       5.40000000       0.00000000       5.40000000      58.69340000       71        2
Co       5.40000000       1.80000000       3.60000000      58.93319400       72        1
Ni       3.60000000       0.00000000       7.20000000      58.69340000       73        2
Mn       3.60000000       1.80000000       9.00000000      54.93804400       74        5
Fe       5.40000000       0.00000000       9.00000000      55.84500000       75        4
Mn       5.40000000       1.80000000       7.20000000      54.93804400       76        5
Cr       3.60000000       0.00000000      10.80000000      51.99610000       77        3
Fe       3.60000000       1.80000000      12.60000000      55.84500000       78        4
Cr       5.40000000       0.00000000      12.60000000      51.99610000       79        3
Co       5.40000000       1.80000000      10.80000000      58.93319400       80        1
Co       3.60000000       3.60000000       0.00000000      58.93319400       81        1
Ni       3.60000000       5.40000000       1.80000000      58.69340000       82        2
Ni       5.40000000       3.60000000       1.80000000      58.69340000       83        2
Co       5.40000000       5.40000000       0.00000000      58.93319400       84        1
Co       3.60000000       3.60000000       3.60000000      58.93319400       85        1
Mn       3.60000000       5.40000000       5.40000000      54.93804400       86        5
Fe       5.40000000       3.60000000       5.40000000      55.84500000       87        4
Cr       5.40000000       5.40000000       3.60000000      51.99610000       88        3
Co       3.60000000       3.60000000       7.20000000      58.93319400       89        1
Fe       3.60000000       5.40000000       9.00000000      55.84500000       90        4
Ni       5.40000000       3.60000000       9.00000000      58.69340000       91        2
Mn       5.40000000       5.40000000       7.20000000      54.93804400       92        5
Co       3.60000000       3.60000000      10.80000000      58.93319400       93        1
Ni       3.60000000       5.40000000      12.60000000      58.69340000       94        2
Fe       5.40000000       3.60000000      12.60000000      55.84500000       95        4
Mn       5.40000000       5.40000000      10.80000000      54.93804400       96        5
Mn       3.60000000       7.20000000       0.00000000      54.93804400       97        5
Ni       3.60000000       9.00000000       1.80000000      58.69340000       98        2
Fe       5.40000000       7.20000000       1.80000000      55.84500000       99        4
Co       5.40000000       9.00000000       0.00000000      58.93319400      100        1
Mn       3.60000000       7.20000000       3.60000000      54.93804400      101        5
Ni       3.60000000       9.00000000       5.40000000      58.69340000      102        2
Fe       5.40000000       7.20000000       5.40000000      55.84500000      103        4
Co       5.40000000       9.00000000       3.60000000      58.93319400      104        1
Co       3.60000000       7.20000000       7.20000000      58.93319400      105        1
Mn       3.60000000       9.00000000       9.00000000      54.93804400      106        5
Fe       5.40000000       7.20000000       9.00000000      55.84500000      107        4
Fe       5.40000000       9.00000000       7.20000000      55.84500000      108        4
Co       3.60000000       7.20000000      10.80000000      58.93319400      109        1
Fe       3.60000000       9.00000000      12.60000000      55.84500000      110        4
Mn       5.40000000       7.20000000      12.60000000      54.93804400      111        5
Cr       5.40000000       9.00000000      10.80000000      51.99610000      112        3
Co       3.60000000      10.80000000       0.00000000      58.93319400      113        1
Co       3.60000000      12.60000000       1.80000000      58.93319400      114        1
Mn       5.40000000      10.80000000       1.80000000      54.93804400      115        5
Fe       5.40000000      12.60000000       0.00000000      55.84500000      116        4
Ni       3.60000000      10.80000000       3.60000000      58.69340000      117        2
Mn       3.60000000      12.60000000       5.40000000      54.93804400      118        5
Mn       5.40000000      10.80000000       5.40000000      54.93804400      119        5
Co       5.40000000      12.60000000       3.60000000      58.93319400      120        1
Ni       3.60000000      10.80000000       7.20000000      58.69340000      121        2
Mn       3.60000000      12.60000000       9.00000000      54.93804400      122        5
Fe       5.40000000      10.80000000       9.00000000      55.84500000      123        4
Co       5.40000000      12.60000000       7.20000000      58.93319400      124        1
Fe       3.60000000      10.80000000      10.80000000      55.84500000      125        4
Mn       3.60000000      12.60000000      12.60000000      54.93804400      126        5
Cr       5.40000000      10.80000000      12.60000000      51.99610000      127        3
Cr       5.40000000      12.60000000      10.80000000      51.99610000      128        3
Mn       7.20000000       0.00000000       0.00000000      54.93804400      129        5
Mn       7.20000000       1.80000000       1.80000000      54.93804400      130        5
Co       9.00000000       0.00000000       1.80000000      58.93319400      131        1
Fe       9.00000000       1.80000000       0.00000000      55.84500000      132        4
Mn       7.20000000       0.00000000       3.60000000      54.93804400      133        5
Ni       7.20000000       1.80000000       5.40000000      58.69340000      134        2
Co       9.00000000       0.00000000       5.40000000      58.93319400      135        1
Co       9.00000000       1.80000000       3.60000000      58.93319400      136        1
Mn       7.20000000       0.00000000       7.20000000      54.93804400      137        5
Fe       7.20000000       1.80000000       9.00000000      55.84500000      138        4
Mn       9.00000000       0.00000000       9.00000000      54.93804400      139        5
Co       9.00000000       1.80000000       7.20000000      58.93319400      140        1
Cr       7.20000000       0.00000000      10.80000000      51.99610000      141        3
Cr       7.20000000       1.80000000      12.60000000      51.99610000      142        3
Fe       9.00000000       0.00000000      12.60000000      55.84500000      143        4
Cr       9.00000000       1.80000000      10.80000000      51.99610000      144        3
Cr       7.20000000       3.60000000       0.00000000      51.99610000      145        3
Cr       7.20000000       5.40000000       1.80000000      51.99610000      146        3
Cr       9.00000000       3.60000000       1.80000000      51.99610000      147        3
Cr       9.00000000       5.40000000       0.00000000      51.99610000      148        3
Fe       7.20000000       3.60000000       3.60000000      55.84500000      149        4
Cr       7.20000000       5.40000000       5.40000000      51.99610000      150        3
Mn       9.00000000       3.60000000       5.40000000      54.93804400      151        5
Cr       9.00000000       5.40000000       3.60000000      51.99610000      152        3
Co       7.20000000       3.60000000       7.20000000      58.93319400      153        1
Fe       7.20000000       5.40000000       9.00000000      55.84500000      154        4
Mn       9.00000000       3.60000000       9.00000000      54.93804400      155        5
Fe       9.00000000       5.40000000       7.20000000      55.84500000      156        4
Mn       7.20000000       3.60000000      10.80000000      54.93804400      157        5
Fe       7.20000000       5.40000000      12.60000000      55.84500000      158        4
Cr       9.00000000       3.60000000      12.60000000      51.99610000      159        3
Cr       9.00000000       5.40000000      10.80000000      51.99610000      160        3
Fe       7.20000000       7.20000000       0.00000000      55.84500000      161        4
Fe       7.20000000       9.00000000       1.80000000      55.84500000      162        4
Cr       9.00000000       7.20000000       1.80000000      51.99610000      163        3
Fe       9.00000000       9.00000000       0.00000000      55.84500000      164        4
Cr       7.20000000       7.20000000       3.60000000      51.99610000      165        3
Mn       7.20000000       9.00000000       5.40000000      54.93804400      166        5
Cr       9.00000000       7.20000000       5.40000000      51.99610000      167        3
Fe       9.00000000       9.00000000       3.60000000      55.84500000      168        4
Cr       7.20000000       7.20000000       7.20000000      51.99610000      169        3
Cr       7.20000000       9.00000000       9.00000000      51.99610000      170        3
Cr       9.00000000       7.20000000       9.00000000      51.99610000      171        3
Fe       9.00000000       9.00000000       7.20000000      55.84500000      172        4
Cr       7.20000000       7.20000000      10.80000000      51.99610000      173        3
Cr       7.20000000       9.00000000      12.60000000      51.99610000      174        3
Cr       9.00000000       7.20000000      12.60000000      51.99610000      175        3
Cr       9.00000000       9.00000000      10.80000000      51.99610000      176        3
Fe       7.20000000      10.80000000       0.00000000      55.84500000      177        4
Mn       7.20000000      12.60000000       1.80000000      54.93804400      178        5
Mn       9.00000000      10.80000000       1.80000000      54.93804400      179        5
Ni       9.00000000      12.60000000       0.00000000      58.69340000      180        2
Ni       7.20000000      10.80000000       3.60000000      58.69340000      181        2
Fe       7.20000000      12.60000000       5.40000000      55.84500000      182        4
Co       9.00000000      10.80000000       5.40000000      58.93319400      183        1
Ni       9.00000000      12.60000000       3.60000000      58.69340000      184        2
Ni       7.20000000      10.80000000       7.20000000      58.69340000      185        2
Mn       7.20000000      12.60000000       9.00000000      54.93804400      186        5
Mn       9.00000000      10.80000000       9.00000000      54.93804400      187        5
Ni       9.00000000      12.60000000       7.20000000      58.69340000      188        2
Cr       7.20000000      10.80000000      10.80000000      51.99610000      189        3
Cr       7.20000000      12.60000000      12.60000000      51.99610000      190        3
Fe       9.00000000      10.80000000      12.60000000      55.84500000      191        4
Fe       9.00000000      12.60000000      10.80000000      55.84500000      192        4
Ni      10.80000000       0.00000000       0.00000000      58.69340000      193        2
Mn      10.80000000       1.80000000       1.80000000      54.93804400      194        5
Co      12.60000000       0.00000000       1.80000000      58.93319400      195        1
Fe      12.60000000       1.80000000       0.00000000      55.84500000      196        4
Ni      10.80000000       0.00000000       3.60000000      58.69340000      197        2
Mn      10.80000000       1.80000000       5.40000000      54.93804400      198        5
Co      12.60000000       0.00000000       5.40000000      58.93319400      199        1
Co      12.60000000       1.80000000       3.60000000      58.93319400      200        1
Ni      10.80000000       0.00000000       7.20000000      58.69340000      201        2
Ni      10.80000000       1.80000000       9.00000000      58.69340000      202        2
Co      12.60000000       0.00000000       9.00000000      58.93319400      203        1
Fe      12.60000000       1.80000000       7.20000000      55.84500000      204        4
Co      10.80000000       0.00000000      10.80000000      58.93319400      205        1
Cr      10.80000000       1.80000000      12.60000000      51.99610000      206        3
Fe      12.60000000       0.00000000      12.60000000      55.84500000      207        4
Mn      12.60000000       1.80000000      10.80000000      54.93804400      208        5
Cr      10.80000000       3.60000000       0.00000000      51.99610000      209        3
Cr      10.80000000       5.40000000       1.80000000      51.99610000      210        3
Fe      12.60000000       3.60000000       1.80000000      55.84500000      211        4
Cr      12.60000000       5.40000000       0.00000000      51.99610000      212        3
Fe      10.80000000       3.60000000       3.60000000      55.84500000      213        4
Mn      10.80000000       5.40000000       5.40000000      54.93804400      214        5
Co      12.60000000       3.60000000       5.40000000      58.93319400      215        1
Fe      12.60000000       5.40000000       3.60000000      55.84500000      216        4
Ni      10.80000000       3.60000000       7.20000000      58.69340000      217        2
Fe      10.80000000       5.40000000       9.00000000      55.84500000      218        4
Co      12.60000000       3.60000000       9.00000000      58.93319400      219        1
Ni      12.60000000       5.40000000       7.20000000      58.69340000      220        2
Fe      10.80000000       3.60000000      10.80000000      55.84500000      221        4
Cr      10.80000000       5.40000000      12.60000000      51.99610000      222        3
Cr      12.60000000       3.60000000      12.60000000      51.99610000      223        3
Cr      12.60000000       5.40000000      10.80000000      51.99610000      224        3
Cr      10.80000000       7.20000000       0.00000000      51.99610000      225        3
Cr      10.80000000       9.00000000       1.80000000      51.99610000      226        3
Cr      12.60000000       7.20000000       1.80000000      51.99610000      227        3
Fe      12.60000000       9.00000000       0.00000000      55.84500000      228        4
Cr      10.80000000       7.20000000       3.60000000      51.99610000      229        3
Mn      10.80000000       9.00000000       5.40000000      54.93804400      230        5
Ni      12.60000000       7.20000000       5.40000000      58.69340000      231        2
Mn      12.60000000       9.00000000       3.60000000      54.93804400      232        5
Co      10.80000000       7.20000000       7.20000000      58.93319400      233        1
Mn      10.80000000       9.00000000       9.00000000      54.93804400      234        5
Ni      12.60000000       7.20000000       9.00000000      58.69340000      235        2
Fe      12.60000000       9.00000000       7.20000000      55.84500000      236        4
Cr      10.80000000       7.20000000      10.80000000      51.99610000      237        3
Fe      10.80000000       9.00000000      12.60000000      55.84500000      238        4
Cr      12.60000000       7.20000000      12.60000000      51.99610000      239        3
Mn      12.60000000       9.00000000      10.80000000      54.93804400      240        5
Co      10.80000000      10.80000000       0.00000000      58.93319400      241        1
Mn      10.80000000      12.60000000       1.80000000      54.93804400      242        5
Fe      12.60000000      10.80000000       1.80000000      55.84500000      243        4
Mn      12.60000000      12.60000000       0.00000000      54.93804400      244        5
Fe      10.80000000      10.80000000       3.60000000      55.84500000      245        4
Mn      10.80000000      12.60000000       5.40000000      54.93804400      246        5
Ni      12.60000000      10.80000000       5.40000000      58.69340000      247        2
Co      12.60000000      12.60000000       3.60000000      58.93319400      248        1
Co      10.80000000      10.80000000       7.20000000      58.93319400      249        1
Mn      10.80000000      12.60000000       9.00000000      54.93804400      250        5
Ni      12.60000000      10.80000000       9.00000000      58.69340000      251        2
Fe      12.60000000      12.60000000       7.20000000      55.84500000      252        4
Co      10.80000000      10.80000000      10.80000000      58.93319400      253        1
Mn      10.80000000      12.60000000      12.60000000      54.93804400      254        5
Ni      12.60000000      10.80000000      12.60000000      58.69340000      255        2
Ni      12.60000000      12.60000000      10.80000000      58.69340000      256        2
