256
Lattice="14.4 0.0 0.0 0.0 14.4 0.0 0.0 0.0 14.4" Properties=species:S:1:pos:R:3:masses:R:1:id:I:1:type:I:1 comment="(written by ASE)" energy=-1016.63052502689 pbc="T T T"
Mn       0.00000000       0.00000000       0.00000000      54.93804400        1        5
Cr       0.00000000       1.80000000       1.80000000      51.99610000        2        3
Cr       1.80000000       0.00000000       1.80000000      51.99610000        3        3
Cr       1.80000000       1.80000000       0.00000000      51.99610000        4        3
Ni       0.00000000       0.00000000       3.60000000      58.69340000        5        2
Ni       0.00000000       1.80000000       5.40000000      58.69340000        6        2
Co       1.80000000       0.00000000       5.40000000      58.93319400        7        1
Co       1.80000000       1.80000000       3.60000000      58.93319400        8        1
Co       0.00000000       0.00000000       7.20000000      58.93319400        9        1
Fe       0.00000000       1.80000000       9.00000000      55.84500000       10        4
Ni       1.80000000       0.00000000       9.00000000      58.69340000       11        2
Cr       1.80000000       1.80000000       7.20000000      51.99610000       12        3
Fe       0.00000000       0.00000000      10.80000000      55.84500000       13        4
Mn       0.00000000       1.80000000      12.60000000      54.93804400       14        5
Cr       1.80000000       0.00000000      12.60000000      51.99610000       15        3
Fe       1.80000000       1.80000000      10.80000000      55.84500000       16        4
Co       0.00000000       3.60000000       0.00000000      58.93319400       17        1
Cr       0.00000000       5.40000000       1.80000000      51.99610000       18        3
Cr       1.80000000       3.60000000       1.80000000      51.99610000       19        3
Cr       1.80000000       5.40000000       0.00000000      51.99610000       20        3
Co       0.00000000       3.60000000       3.60000000      58.93319400       21        1
Co       0.00000000       5.40000000       5.40000000      58.93319400       22        1
Co       1.80000000       3.60000000       5.40000000      58.93319400       23        1
Cr       1.80000000       5.40000000       3.60000000      51.99610000       24        3
Ni       0.00000000       3.60000000       7.20000000      58.69340000       25        2
Fe       0.00000000       5.40000000       9.00000000      55.84500000       26        4
Cr       1.80000000       3.60000000       9.00000000      51.99610000       27        3
Ni       1.80000000       5.40000000       7.20000000      58.69340000       28        2
Ni       0.00000000       3.60000000      10.80000000      58.69340000       29        2
Cr       0.00000000       5.40000000      12.60000000      51.99610000       30        3
Fe       1.80000000       3.60000000      12.60000000      55.84500000       31        4
Fe       1.80000000       5.40000000      10.80000000      55.84500000       32        4
Cr       0.00000000       7.20000000       0.00000000      51.99610000       33        3
Ni       0.00000000       9.00000000       1.80000000      58.69340000       34        2
Co       1.80000000       7.20000000       1.80000000      58.93319400       35        1
Ni       1.80000000       9.00000000       0.00000000      58.69340000       36        2
Cr       0.00000000       7.20000000       3.60000000      51.99610000       37        3
Ni       0.00000000       9.00000000       5.40000000      58.69340000       38        2
Co       1.80000000       7.20000000       5.40000000      58.93319400       39        1
Cr       1.80000000       9.00000000       3.60000000      51.99610000       40        3
Ni       0.00000000       7.20000000       7.20000000      58.69340000       41        2
Fe       0.00000000       9.00000000       9.00000000      55.84500000       42        4
Fe       1.80000000       7.20000000       9.00000000      55.84500000       43        4
Ni       1.80000000       9.00000000       7.20000000      58.69340000       44        2
Cr       0.00000000       7.20000000      10.80000000      51.99610000       45        3
Fe       0.00000000       9.00000000      12.60000000      55.84500000       46        4
Fe       1.80000000       7.20000000      12.60000000      55.84500000       47        4
Fe       1.80000000       9.00000000      10.80000000      55.84500000       48        4
Fe       0.00000000      10.80000000       0.00000000      55.84500000       49        4
Fe       0.00000000      12.60000000       1.80000000      55.84500000       50        4
Fe       1.80000000      10.80000000       1.80000000      55.84500000       51        4
Cr       1.80000000      12.60000000       0.00000000      51.99610000       52        3
Fe       0.00000000      10.80000000       3.60000000      55.84500000       53        4
Mn       0.00000000      12.60000000       5.40000000      54.93804400       54        5
Co       1.80000000      10.80000000       5.40000000      58.93319400       55        1
Cr       1.80000000      12.60000000       3.60000000      51.99610000       56        3
Mn       0.00000000      10.80000000       7.20000000      54.93804400       57        5
Mn       0.00000000      12.60000000       9.00000000      54.93804400       58        5
Fe       1.80000000      10.80000000       9.00000000      55.84500000       59        4
Ni       1.80000000      12.60000000       7.20000000      58.69340000       60        2
Ni       0.00000000      10.80000000      10.80000000      58.69340000       61        2
Fe       0.00000000      12.60000000      12.60000000      55.84500000       62        4
Fe       1.80000000      10.80000000      12.60000000      55.84500000       63        4
Fe       1.80000000      12.60000000      10.80000000      55.84500000       64        4
Cr       3.60000000       0.00000000       0.00000000      51.99610000       65        3
Co       3.60000000       1.80000000       1.80000000      58.93319400       66        1
Ni       5.40000000       0.00000000       1.80000000      58.69340000       67        2
Fe       5.40000000       1.80000000       0.00000000      55.84500000       68        4
Ni       3.60000000       0.00000000       3.60000000      58.69340000       69        2
Cr       3.60000000       1.80000000       5.40000000      51.99610000       70        3
Mn       5.40000000       0.00000000       5.40000000      54.93804400       71        5
Ni       5.40000000       1.80000000       3.60000000      58.69340000       72        2
Cr       3.60000000       0.00000000       7.20000000      51.99610000       73        3
Cr       3.60000000       1.80000000       9.00000000      51.99610000       74        3
Co       5.40000000       0.00000000       9.00000000      58.93319400       75        1
Co       5.40000000       1.80000000       7.20000000      58.93319400       76        1
Fe       3.60000000       0.00000000      10.80000000      55.84500000       77        4
Fe       3.60000000       1.80000000      12.60000000      55.84500000       78        4
Cr       5.40000000       0.00000000      12.60000000      51.99610000       79        3
Cr       5.40000000       1.80000000      10.80000000      51.99610000       80        3
Cr       3.60000000       3.60000000       0.00000000      51.99610000       81        3
Cr       3.60000000       5.40000000       1.80000000      51.99610000       82        3
Ni       5.40000000       3.60000000       1.80000000      58.69340000       83        2
Cr       5.40000000       5.40000000       0.00000000      51.99610000       84        3
Co       3.60000000       3.60000000       3.60000000      58.93319400       85        1
Ni       3.60000000       5.40000000       5.40000000      58.69340000       86        2
Ni       5.40000000       3.60000000       5.40000000      58.69340000       87        2
Ni       5.40000000       5.40000000       3.60000000      58.69340000       88        2
Co       3.60000000       3.60000000       7.20000000      58.93319400       89        1
Ni       3.60000000       5.40000000       9.00000000      58.69340000       90        2
Co       5.40000000       3.60000000       9.00000000      58.93319400       91        1
Co       5.40000000       5.40000000       7.20000000      58.93319400       92        1
Fe       3.60000000       3.60000000      10.80000000      55.84500000       93        4
Ni       3.60000000       5.40000000      12.60000000      58.69340000       94        2
Fe       5.40000000       3.60000000      12.60000000      55.84500000       95        4
Mn       5.40000000       5.40000000      10.80000000      54.93804400       96        5
Co       3.60000000       7.20000000       0.00000000      58.93319400       97        1
Cr       3.60000000       9.00000000       1.80000000      51.99610000       98        3
Cr       5.40000000       7.20000000       1.80000000      51.99610000       99        3
Cr       5.40000000       9.00000000       0.00000000      51.99610000      100        3
Co       3.60000000       7.20000000       3.60000000      58.93319400      101        1
Ni       3.60000000       9.00000000       5.40000000      58.69340000      102        2
Co       5.40000000       7.20000000       5.40000000      58.93319400      103        1
Cr       5.40000000       9.00000000       3.60000000      51.99610000      104        3
Mn       3.60000000       7.20000000       7.20000000      54.93804400      105        5
Fe       3.60000000       9.00000000       9.00000000      55.84500000      106        4
Mn       5.40000000       7.20000000       9.00000000      54.93804400      107        5
Fe       5.40000000       9.00000000       7.20000000      55.84500000      108        4
Fe       3.60000000       7.20000000      10.80000000      55.84500000      109        4
Ni       3.60000000       9.00000000      12.60000000      58.69340000      110        2
Fe       5.40000000       7.20000000      12.60000000      55.84500000      111        4
Mn       5.40000000       9.00000000      10.80000000      54.93804400      112        5
Cr       3.60000000      10.80000000       0.00000000      51.99610000      113        3
Fe       3.60000000      12.60000000       1.80000000      55.84500000      114        4
Fe       5.40000000      10.80000000       1.80000000      55.84500000      115        4
Cr       5.40000000      12.60000000       0.00000000      51.99610000      116        3
Cr       3.60000000      10.80000000       3.60000000      51.99610000      117        3
Co       3.60000000      12.60000000       5.40000000      58.93319400      118        1
Fe       5.40000000      10.80000000       5.40000000      55.84500000      119        4
Fe       5.40000000      12.60000000       3.60000000      55.84500000      120        4
Ni       3.60000000      10.80000000       7.20000000      58.69340000      121        2
Fe       3.60000000      12.60000000       9.00000000      55.84500000      122        4
Fe       5.40000000      10.80000000       9.00000000      55.84500000      123        4
Mn       5.40000000      12.60000000       7.20000000      54.93804400      124        5
Ni       3.60000000      10.80000000      10.80000000      58.69340000      125        2
Cr       3.60000000      12.60000000      12.60000000      51.99610000      126        3
Co       5.40000000      10.80000000      12.60000000      58.93319400      127        1
Cr       5.40000000      12.60000000      10.80000000      51.99610000      128        3
Cr       7.20000000       0.00000000       0.00000000      51.99610000      129        3
Fe       7.20000000       1.80000000       1.80000000      55.84500000      130        4
Co       9.00000000       0.00000000       1.80000000      58.93319400      131        1
Ni       9.00000000       1.80000000       0.00000000      58.69340000      132        2
Mn       7.20000000       0.00000000       3.60000000      54.93804400      133        5
Co       7.20000000       1.80000000       5.40000000      58.93319400      134        1
Mn       9.00000000       0.00000000       5.40000000      54.93804400      135        5
Ni       9.00000000       1.80000000       3.60000000      58.69340000      136        2
Mn       7.20000000       0.00000000       7.20000000      54.93804400      137        5
Ni       7.20000000       1.80000000       9.00000000      58.69340000      138        2
Co       9.00000000       0.00000000       9.00000000      58.93319400      139        1
Mn       9.00000000       1.80000000       7.20000000      54.93804400      140        5
Co       7.20000000       0.00000000      10.80000000      58.93319400      141        1
Cr       7.20000000       1.80000000      12.60000000      51.99610000      142        3
Co       9.00000000       0.00000000      12.60000000      58.93319400      143        1
Mn       9.00000000       1.80000000      10.80000000      54.93804400      144        5
Ni       7.20000000       3.60000000       0.00000000      58.69340000      145        2
Fe       7.20000000       5.40000000       1.80000000      55.84500000      146        4
Co       9.00000000       3.60000000       1.80000000      58.93319400      147        1
Cr       9.00000000       5.40000000       0.00000000      51.99610000      148        3
Cr       7.20000000       3.60000000       3.60000000      51.99610000      149        3
Co       7.20000000       5.40000000       5.40000000      58.93319400      150        1
Co       9.00000000       3.60000000       5.40000000      58.93319400      151        1
Cr       9.00000000       5.40000000       3.60000000      51.99610000      152        3
Ni       7.20000000       3.60000000       7.20000000      58.69340000      153        2
Mn       7.20000000       5.40000000       9.00000000      54.93804400      154        5
Co       9.00000000       3.60000000       9.00000000      58.93319400      155        1
Ni       9.00000000       5.40000000       7.20000000      58.69340000      156        2
Ni       7.20000000       3.60000000      10.80000000      58.69340000      157        2
Fe       7.20000000       5.40000000      12.60000000      55.84500000      158        4
Fe       9.00000000       3.60000000      12.60000000      55.84500000      159        4
Mn       9.00000000       5.40000000      10.80000000      54.93804400      160        5
Cr       7.20000000       7.20000000       0.00000000      51.99610000      161        3
Fe       7.20000000       9.00000000       1.80000000      55.84500000      162        4
Fe       9.00000000       7.20000000       1.80000000      55.84500000      163        4
Fe       9.00000000       9.00000000       0.00000000      55.84500000      164        4
Cr       7.20000000       7.20000000       3.60000000      51.99610000      165        3
Mn       7.20000000       9.00000000       5.40000000      54.93804400      166        5
Co       9.00000000       7.20000000       5.40000000      58.93319400      167        1
Ni       9.00000000       9.00000000       3.60000000      58.69340000      168        2
Mn       7.20000000       7.20000000       7.20000000      54.93804400      169        5
Mn       7.20000000       9.00000000       9.00000000      54.93804400      170        5
Mn       9.00000000       7.20000000       9.00000000      54.93804400      171        5
Mn       9.00000000       9.00000000       7.20000000      54.93804400      172        5
Mn       7.20000000       7.20000000      10.80000000      54.93804400      173        5
Mn       7.20000000       9.00000000      12.60000000      54.93804400      174        5
Co       9.00000000       7.20000000      12.60000000      58.93319400      175        1
Mn       9.00000000       9.00000000      10.80000000      54.93804400      176        5
Mn       7.20000000      10.80000000       0.00000000      54.93804400      177        5
Fe       7.20000000      12.60000000       1.80000000      55.84500000      178        4
Mn       9.00000000      10.80000000       1.80000000      54.93804400      179        5
Mn       9.00000000      12.60000000       0.00000000      54.93804400      180        5
Fe       7.20000000      10.80000000       3.60000000      55.84500000      181        4
Mn       7.20000000      12.60000000       5.40000000      54.93804400      182        5
Mn       9.00000000      10.80000000       5.40000000      54.93804400      183        5
Mn       9.00000000      12.60000000       3.60000000      54.93804400      184        5
Mn       7.20000000      10.80000000       7.20000000      54.93804400      185        5
Mn       7.20000000      12.60000000       9.00000000      54.93804400      186        5
Mn       9.00000000      10.80000000       9.00000000      54.93804400      187        5
Mn       9.00000000      12.60000000       7.20000000      54.93804400      188        5
Co       7.20000000      10.80000000      10.80000000      58.93319400      189        1
Ni       7.20000000      12.60000000      12.60000000      58.69340000      190        2
Mn       9.00000000      10.80000000      12.60000000      54.93804400      191        5
Ni       9.00000000      12.60000000      10.80000000      58.69340000      192        2
Mn      10.80000000       0.00000000       0.00000000      54.93804400      193        5
Co      10.80000000       1.80000000       1.80000000      58.93319400      194        1
Co      12.60000000       0.00000000       1.80000000      58.93319400      195        1
Ni      12.60000000       1.80000000       0.00000000      58.69340000      196        2
Mn      10.80000000       0.00000000       3.60000000      54.93804400      197        5
Co      10.80000000       1.80000000       5.40000000      58.93319400      198        1
Co      12.60000000       0.00000000       5.40000000      58.93319400      199        1
Ni      12.60000000       1.80000000       3.60000000      58.69340000      200        2
Mn      10.80000000       0.00000000       7.20000000      54.93804400      201        5
Mn      10.80000000       1.80000000       9.00000000      54.93804400      202        5
Mn      12.60000000       0.00000000       9.00000000      54.93804400      203        5
Mn      12.60000000       1.80000000       7.20000000      54.93804400      204        5
Mn      10.80000000       0.00000000      10.80000000      54.93804400      205        5
Mn      10.80000000       1.80000000      12.60000000      54.93804400      206        5
Mn      12.60000000       0.00000000      12.60000000      54.93804400      207        5
Mn      12.60000000       1.80000000      10.80000000      54.93804400      208        5
Co      10.80000000       3.60000000       0.00000000      58.93319400      209        1
Cr      10.80000000       5.40000000       1.80000000      51.99610000      210        3
Co      12.60000000       3.60000000       1.80000000      58.93319400      211        1
Cr      12.60000000       5.40000000       0.00000000      51.99610000      212        3
Ni      10.80000000       3.60000000       3.60000000      58.69340000      213        2
Co      10.80000000       5.40000000       5.40000000      58.93319400      214        1
Co      12.60000000       3.60000000       5.40000000      58.93319400      215        1
Ni      12.60000000       5.40000000       3.60000000      58.69340000      216        2
Mn      10.80000000       3.60000000       7.20000000      54.93804400      217        5
Ni      10.80000000       5.40000000       9.00000000      58.69340000      218        2
Mn      12.60000000       3.60000000       9.00000000      54.93804400      219        5
Mn      12.60000000       5.40000000       7.20000000      54.93804400      220        5
Mn      10.80000000       3.60000000      10.80000000      54.93804400      221        5
Ni      10.80000000       5.40000000      12.60000000      58.69340000      222        2
Co      12.60000000       3.60000000      12.60000000      58.93319400      223        1
Co      12.60000000       5.40000000      10.80000000      58.93319400      224        1
Fe      10.80000000       7.20000000       0.00000000      55.84500000      225        4
Fe      10.80000000       9.00000000       1.80000000      55.84500000      226        4
Fe      12.60000000       7.20000000       1.80000000      55.84500000      227        4
Fe      12.60000000       9.00000000       0.00000000      55.84500000      228        4
Cr      10.80000000       7.20000000       3.60000000      51.99610000      229        3
Co      10.80000000       9.00000000       5.40000000      58.93319400      230        1
Co      12.60000000       7.20000000       5.40000000      58.93319400      231        1
Cr      12.60000000       9.00000000       3.60000000      51.99610000      232        3
Mn      10.80000000       7.20000000       7.20000000      54.93804400      233        5
Mn      10.80000000       9.00000000       9.00000000      54.93804400      234        5
Ni      12.60000000       7.20000000       9.00000000      58.69340000      235        2
Mn      12.60000000       9.00000000       7.20000000      54.93804400      236        5
Co      10.80000000       7.20000000      10.80000000      58.93319400      237        1
Cr      10.80000000       9.00000000      12.60000000      51.99610000      238        3
Ni      12.60000000       7.20000000      12.60000000      58.69340000      239        2
Fe      12.60000000       9.00000000      10.80000000      55.84500000      240        4
Fe      10.80000000      10.80000000       0.00000000      55.84500000      241        4
Co      10.80000000      12.60000000       1.80000000      58.93319400      242        1
Fe      12.60000000      10.80000000       1.80000000      55.84500000      243        4
Mn      12.60000000      12.60000000       0.00000000      54.93804400      244        5
Ni      10.80000000      10.80000000       3.60000000      58.69340000      245        2
Mn      10.80000000      12.60000000       5.40000000      54.93804400      246        5
Co      12.60000000      10.80000000       5.40000000      58.93319400      247        1
Ni      12.60000000      12.60000000       3.60000000      58.69340000      248        2
Mn      10.80000000      10.80000000       7.20000000      54.93804400      249        5
Mn      10.80000000      12.60000000       9.00000000      54.93804400      250        5
Mn      12.60000000      10.80000000       9.00000000      54.93804400      251        5
Mn      12.60000000      12.60000000       7.20000000      54.93804400      252        5
Fe      10.80000000      10.80000000      10.80000000      55.84500000      253        4
Mn      10.80000000      12.60000000      12.60000000      54.93804400      254        5
Fe      12.60000000      10.80000000      12.60000000      55.84500000      255        4
Fe      12.60000000      12.60000000      10.80000000      55.84500000      256        4
