256
Lattice="14.4 0.0 0.0 0.0 14.4 0.0 0.0 0.0 14.4" Properties=species:S:1:pos:R:3:masses:R:1:id:I:1:type:I:1 comment="(written by ASE)" energy=-1020.16197473303 pbc="T T T"
Cr       0.00000000       0.00000000       0.00000000      51.99610000        1        3
Cr       0.00000000       1.80000000       1.80000000      51.99610000        2        3
Cr       1.80000000       0.00000000       1.80000000      51.99610000        3        3
Ni       1.80000000       1.80000000       0.00000000      58.69340000        4        2
Ni       0.00000000       0.00000000       3.60000000      58.69340000        5        2
Cr       0.00000000       1.80000000       5.40000000      51.99610000        6        3
Cr       1.80000000       0.00000000       5.40000000      51.99610000        7        3
Cr       1.80000000       1.80000000       3.60000000      51.99610000        8        3
Cr       0.00000000       0.00000000       7.20000000      51.99610000        9        3
Co       0.00000000       1.80000000       9.00000000      58.93319400       10        1
Cr       1.80000000       0.00000000       9.00000000      51.99610000       11        3
Ni       1.80000000       1.80000000       7.20000000      58.69340000       12        2
Mn       0.00000000       0.00000000      10.80000000      54.93804400       13        5
Mn       0.00000000       1.80000000      12.60000000      54.93804400       14        5
Fe       1.80000000       0.00000000      12.60000000      55.84500000       15        4
Fe       1.80000000       1.80000000      10.80000000      55.84500000       16        4
Ni       0.00000000       3.60000000       0.00000000      58.69340000       17        2
Cr       0.00000000       5.40000000       1.80000000      51.99610000       18        3
Cr       1.80000000       3.60000000       1.80000000      51.99610000       19        3
Co       1.80000000       5.40000000       0.00000000      58.93319400       20        1
Ni       0.00000000       3.60000000       3.60000000      58.69340000       21        2
Ni       0.00000000       5.40000000       5.40000000      58.69340000       22        2
Cr       1.80000000       3.60000000       5.40000000      51.99610000       23        3
Cr       1.80000000       5.40000000       3.60000000      51.99610000       24        3
Cr       0.00000000       3.60000000       7.20000000      51.99610000       25        3
Ni       0.00000000       5.40000000       9.00000000      58.69340000       26        2
Cr       1.80000000       3.60000000       9.00000000      51.99610000       27        3
Ni       1.80000000       5.40000000       7.20000000      58.69340000       28        2
Fe       0.00000000       3.60000000      10.80000000      55.84500000       29        4
Co       0.00000000       5.40000000      12.60000000      58.93319400       30        1
Mn       1.80000000       3.60000000      12.60000000      54.93804400       31        5
Ni       1.80000000       5.40000000      10.80000000      58.69340000       32        2
Ni       0.00000000       7.20000000       0.00000000      58.69340000       33        2
Ni       0.00000000       9.00000000       1.80000000      58.69340000       34        2
Cr       1.80000000       7.20000000       1.80000000      51.99610000       35        3
Cr       1.80000000       9.00000000       0.00000000      51.99610000       36        3
Cr       0.00000000       7.20000000       3.60000000      51.99610000       37        3
Ni       0.00000000       9.00000000       5.40000000      58.69340000       38        2
Cr       1.80000000       7.20000000       5.40000000      51.99610000       39        3
Cr       1.80000000       9.00000000       3.60000000      51.99610000       40        3
Cr       0.00000000       7.20000000       7.20000000      51.99610000       41        3
Co       0.00000000       9.00000000       9.00000000      58.93319400       42        1
Co       1.80000000       7.20000000       9.00000000      58.93319400       43        1
Fe       1.80000000       9.00000000       7.20000000      55.84500000       44        4
Co       0.00000000       7.20000000      10.80000000      58.93319400       45        1
Ni       0.00000000       9.00000000      12.60000000      58.69340000       46        2
Co       1.80000000       7.20000000      12.60000000      58.93319400       47        1
Co       1.80000000       9.00000000      10.80000000      58.93319400       48        1
Ni       0.00000000      10.80000000       0.00000000      58.69340000       49        2
Ni       0.00000000      12.60000000       1.80000000      58.69340000       50        2
Mn       1.80000000      10.80000000       1.80000000      54.93804400       51        5
Fe       1.80000000      12.60000000       0.00000000      55.84500000       52        4
Cr       0.00000000      10.80000000       3.60000000      51.99610000       53        3
Ni       0.00000000      12.60000000       5.40000000      58.69340000       54        2
Mn       1.80000000      10.80000000       5.40000000      54.93804400       55        5
Cr       1.80000000      12.60000000       3.60000000      51.99610000       56        3
Co       0.00000000      10.80000000       7.20000000      58.93319400       57        1
Ni       0.00000000      12.60000000       9.00000000      58.69340000       58        2
Mn       1.80000000      10.80000000       9.00000000      54.93804400       59        5
Mn       1.80000000      12.60000000       7.20000000      54.93804400       60        5
Ni       0.00000000      10.80000000      10.80000000      58.69340000       61        2
Cr       0.00000000      12.60000000      12.60000000      51.99610000       62        3
Cr       1.80000000      10.80000000      12.60000000      51.99610000       63        3
Cr       1.80000000      12.60000000      10.80000000      51.99610000       64        3
Mn       3.60000000       0.00000000       0.00000000      54.93804400       65        5
Ni       3.60000000       1.80000000       1.80000000      58.69340000       66        2
Fe       5.40000000       0.00000000       1.80000000      55.84500000       67        4
Fe       5.40000000       1.80000000       0.00000000      55.84500000       68        4
Cr       3.60000000       0.00000000       3.60000000      51.99610000       69        3
Co       3.60000000       1.80000000       5.40000000      58.93319400       70        1
Ni       5.40000000       0.00000000       5.40000000      58.69340000       71        2
Co       5.40000000       1.80000000       3.60000000      58.93319400       72        1
Co       3.60000000       0.00000000       7.20000000      58.93319400       73        1
Co       3.60000000       1.80000000       9.00000000      58.93319400       74        1
Ni       5.40000000       0.00000000       9.00000000      58.69340000       75        2
Co       5.40000000       1.80000000       7.20000000      58.93319400       76        1
Mn       3.60000000       0.00000000      10.80000000      54.93804400       77        5
Mn       3.60000000       1.80000000      12.60000000      54.93804400       78        5
Fe       5.40000000       0.00000000      12.60000000      55.84500000       79        4
Fe       5.40000000       1.80000000      10.80000000      55.84500000       80        4
Cr       3.60000000       3.60000000       0.00000000      51.99610000       81        3
Ni       3.60000000       5.40000000       1.80000000      58.69340000       82        2
Cr       5.40000000       3.60000000       1.80000000      51.99610000       83        3
Cr       5.40000000       5.40000000       0.00000000      51.99610000       84        3
Ni       3.60000000       3.60000000       3.60000000      58.69340000       85        2
Cr       3.60000000       5.40000000       5.40000000      51.99610000       86        3
Co       5.40000000       3.60000000       5.40000000      58.93319400       87        1
Cr       5.40000000       5.40000000       3.60000000      51.99610000       88        3
Ni       3.60000000       3.60000000       7.20000000      58.69340000       89        2
Ni       3.60000000       5.40000000       9.00000000      58.69340000       90        2
Mn       5.40000000       3.60000000       9.00000000      54.93804400       91        5
Co       5.40000000       5.40000000       7.20000000      58.93319400       92        1
Mn       3.60000000       3.60000000      10.80000000      54.93804400       93        5
Ni       3.60000000       5.40000000      12.60000000      58.69340000       94        2
Mn       5.40000000       3.60000000      12.60000000      54.93804400       95        5
Fe       5.40000000       5.40000000      10.80000000      55.84500000       96        4
Co       3.60000000       7.20000000       0.00000000      58.93319400       97        1
Fe       3.60000000       9.00000000       1.80000000      55.84500000       98        4
Co       5.40000000       7.20000000       1.80000000      58.93319400       99        1
Mn       5.40000000       9.00000000       0.00000000      54.93804400      100        5
Cr       3.60000000       7.20000000       3.60000000      51.99610000      101        3
Fe       3.60000000       9.00000000       5.40000000      55.84500000      102        4
Ni       5.40000000       7.20000000       5.40000000      58.69340000      103        2
Mn       5.40000000       9.00000000       3.60000000      54.93804400      104        5
Mn       3.60000000       7.20000000       7.20000000      54.93804400      105        5
Fe       3.60000000       9.00000000       9.00000000      55.84500000      106        4
Fe       5.40000000       7.20000000       9.00000000      55.84500000      107        4
Mn       5.40000000       9.00000000       7.20000000      54.93804400      108        5
Co       3.60000000       7.20000000      10.80000000      58.93319400      109        1
Ni       3.60000000       9.00000000      12.60000000      58.69340000      110        2
Co       5.40000000       7.20000000      12.60000000      58.93319400      111        1
Co       5.40000000       9.00000000      10.80000000      58.93319400      112        1
Mn       3.60000000      10.80000000       0.00000000      54.93804400      113        5
Fe       3.60000000      12.60000000       1.80000000      55.84500000      114        4
Mn       5.40000000      10.80000000       1.80000000      54.93804400      115        5
Fe       5.40000000      12.60000000       0.00000000      55.84500000      116        4
Mn       3.60000000      10.80000000       3.60000000      54.93804400      117        5
Fe       3.60000000      12.60000000       5.40000000      55.84500000      118        4
Fe       5.40000000      10.80000000       5.40000000      55.84500000      119        4
Mn       5.40000000      12.60000000       3.60000000      54.93804400      120        5
Mn       3.60000000      10.80000000       7.20000000      54.93804400      121        5
Fe       3.60000000      12.60000000       9.00000000      55.84500000      122        4
Fe       5.40000000      10.80000000       9.00000000      55.84500000      123        4
Fe       5.40000000      12.60000000       7.20000000      55.84500000      124        4
Co       3.60000000      10.80000000      10.80000000      58.93319400      125        1
Fe       3.60000000      12.60000000      12.60000000      55.84500000      126        4
Mn       5.40000000      10.80000000      12.60000000      54.93804400      127        5
Mn       5.40000000      12.60000000      10.80000000      54.93804400      128        5
Mn       7.20000000       0.00000000       0.00000000      54.93804400      129        5
Fe       7.20000000       1.80000000       1.80000000      55.84500000      130        4
Fe       9.00000000       0.00000000       1.80000000      55.84500000      131        4
Fe       9.00000000       1.80000000       0.00000000      55.84500000      132        4
Mn       7.20000000       0.00000000       3.60000000      54.93804400      133        5
Co       7.20000000       1.80000000       5.40000000      58.93319400      134        1
Ni       9.00000000       0.00000000       5.40000000      58.69340000      135        2
Co       9.00000000       1.80000000       3.60000000      58.93319400      136        1
Co       7.20000000       0.00000000       7.20000000      58.93319400      137        1
Mn       7.20000000       1.80000000       9.00000000      54.93804400      138        5
Fe       9.00000000       0.00000000       9.00000000      55.84500000      139        4
Co       9.00000000       1.80000000       7.20000000      58.93319400      140        1
Mn       7.20000000       0.00000000      10.80000000      54.93804400      141        5
Mn       7.20000000       1.80000000      12.60000000      54.93804400      142        5
Fe       9.00000000       0.00000000      12.60000000      55.84500000      143        4
Mn       9.00000000       1.80000000      10.80000000      54.93804400      144        5
Mn       7.20000000       3.60000000       0.00000000      54.93804400      145        5
Ni       7.20000000       5.40000000       1.80000000      58.69340000      146        2
Cr       9.00000000       3.60000000       1.80000000      51.99610000      147        3
Cr       9.00000000       5.40000000       0.00000000      51.99610000      148        3
Ni       7.20000000       3.60000000       3.60000000      58.69340000      149        2
Co       7.20000000       5.40000000       5.40000000      58.93319400      150        1
Co       9.00000000       3.60000000       5.40000000      58.93319400      151        1
Cr       9.00000000       5.40000000       3.60000000      51.99610000      152        3
Ni       7.20000000       3.60000000       7.20000000      58.69340000      153        2
Co       7.20000000       5.40000000       9.00000000      58.93319400      154        1
Fe       9.00000000       3.60000000       9.00000000      55.84500000      155        4
Co       9.00000000       5.40000000       7.20000000      58.93319400      156        1
Fe       7.20000000       3.60000000      10.80000000      55.84500000      157        4
Fe       7.20000000       5.40000000      12.60000000      55.84500000      158        4
Mn       9.00000000       3.60000000      12.60000000      54.93804400      159        5
Mn       9.00000000       5.40000000      10.80000000      54.93804400      160        5
Cr       7.20000000       7.20000000       0.00000000      51.99610000      161        3
Fe       7.20000000       9.00000000       1.80000000      55.84500000      162        4
Fe       9.00000000       7.20000000       1.80000000      55.84500000      163        4
Mn       9.00000000       9.00000000       0.00000000      54.93804400      164        5
Mn       7.20000000       7.20000000       3.60000000      54.93804400      165        5
Mn       7.20000000       9.00000000       5.40000000      54.93804400      166        5
Fe       9.00000000       7.20000000       5.40000000      55.84500000      167        4
Mn       9.00000000       9.00000000       3.60000000      54.93804400      168        5
Co       7.20000000       7.20000000       7.20000000      58.93319400      169        1
Co       7.20000000       9.00000000       9.00000000      58.93319400      170        1
Ni       9.00000000       7.20000000       9.00000000      58.69340000      171        2
Fe       9.00000000       9.00000000       7.20000000      55.84500000      172        4
Co       7.20000000       7.20000000      10.80000000      58.93319400      173        1
Fe       7.20000000       9.00000000      12.60000000      55.84500000      174        4
Mn       9.00000000       7.20000000      12.60000000      54.93804400      175        5
Ni       9.00000000       9.00000000      10.80000000      58.69340000      176        2
Fe       7.20000000      10.80000000       0.00000000      55.84500000      177        4
Mn       7.20000000      12.60000000       1.80000000      54.93804400      178        5
Mn       9.00000000      10.80000000       1.80000000      54.93804400      179        5
Fe       9.00000000      12.60000000       0.00000000      55.84500000      180        4
Fe       7.20000000      10.80000000       3.60000000      55.84500000      181        4
Mn       7.20000000      12.60000000       5.40000000      54.93804400      182        5
Fe       9.00000000      10.80000000       5.40000000      55.84500000      183        4
Mn       9.00000000      12.60000000       3.60000000      54.93804400      184        5
Mn       7.20000000      10.80000000       7.20000000      54.93804400      185        5
Mn       7.20000000      12.60000000       9.00000000      54.93804400      186        5
Fe       9.00000000      10.80000000       9.00000000      55.84500000      187        4
Fe       9.00000000      12.60000000       7.20000000      55.84500000      188        4
Mn       7.20000000      10.80000000      10.80000000      54.93804400      189        5
Mn       7.20000000      12.60000000      12.60000000      54.93804400      190        5
Mn       9.00000000      10.80000000      12.60000000      54.93804400      191        5
Fe       9.00000000      12.60000000      10.80000000      55.84500000      192        4
Mn      10.80000000       0.00000000       0.00000000      54.93804400      193        5
Cr      10.80000000       1.80000000       1.80000000      51.99610000      194        3
Co      12.60000000       0.00000000       1.80000000      58.93319400      195        1
Ni      12.60000000       1.80000000       0.00000000      58.69340000      196        2
Mn      10.80000000       0.00000000       3.60000000      54.93804400      197        5
Ni      10.80000000       1.80000000       5.40000000      58.69340000      198        2
Cr      12.60000000       0.00000000       5.40000000      51.99610000      199        3
Cr      12.60000000       1.80000000       3.60000000      51.99610000      200        3
Mn      10.80000000       0.00000000       7.20000000      54.93804400      201        5
Mn      10.80000000       1.80000000       9.00000000      54.93804400      202        5
Fe      12.60000000       0.00000000       9.00000000      55.84500000      203        4
Fe      12.60000000       1.80000000       7.20000000      55.84500000      204        4
Mn      10.80000000       0.00000000      10.80000000      54.93804400      205        5
Fe      10.80000000       1.80000000      12.60000000      55.84500000      206        4
Fe      12.60000000       0.00000000      12.60000000      55.84500000      207        4
Fe      12.60000000       1.80000000      10.80000000      55.84500000      208        4
Cr      10.80000000       3.60000000       0.00000000      51.99610000      209        3
Ni      10.80000000       5.40000000       1.80000000      58.69340000      210        2
Ni      12.60000000       3.60000000       1.80000000      58.69340000      211        2
Co      12.60000000       5.40000000       0.00000000      58.93319400      212        1
Ni      10.80000000       3.60000000       3.60000000      58.69340000      213        2
Ni      10.80000000       5.40000000       5.40000000      58.69340000      214        2
Cr      12.60000000       3.60000000       5.40000000      51.99610000      215        3
Cr      12.60000000       5.40000000       3.60000000      51.99610000      216        3
Co      10.80000000       3.60000000       7.20000000      58.93319400      217        1
Co      10.80000000       5.40000000       9.00000000      58.93319400      218        1
Mn      12.60000000       3.60000000       9.00000000      54.93804400      219        5
Co      12.60000000       5.40000000       7.20000000      58.93319400      220        1
Fe      10.80000000       3.60000000      10.80000000      55.84500000      221        4
Fe      10.80000000       5.40000000      12.60000000      55.84500000      222        4
Mn      12.60000000       3.60000000      12.60000000      54.93804400      223        5
Co      12.60000000       5.40000000      10.80000000      58.93319400      224        1
Mn      10.80000000       7.20000000       0.00000000      54.93804400      225        5
Fe      10.80000000       9.00000000       1.80000000      55.84500000      226        4
Ni      12.60000000       7.20000000       1.80000000      58.69340000      227        2
Co      12.60000000       9.00000000       0.00000000      58.93319400      228        1
Mn      10.80000000       7.20000000       3.60000000      54.93804400      229        5
Mn      10.80000000       9.00000000       5.40000000      54.93804400      230        5
Cr      12.60000000       7.20000000       5.40000000      51.99610000      231        3
Cr      12.60000000       9.00000000       3.60000000      51.99610000      232        3
Cr      10.80000000       7.20000000       7.20000000      51.99610000      233        3
Co      10.80000000       9.00000000       9.00000000      58.93319400      234        1
Ni      12.60000000       7.20000000       9.00000000      58.69340000      235        2
Ni      12.60000000       9.00000000       7.20000000      58.69340000      236        2
Co      10.80000000       7.20000000      10.80000000      58.93319400      237        1
Ni      10.80000000       9.00000000      12.60000000      58.69340000      238        2
Co      12.60000000       7.20000000      12.60000000      58.93319400      239        1
Co      12.60000000       9.00000000      10.80000000      58.93319400      240        1
Co      10.80000000      10.80000000       0.00000000      58.93319400      241        1
Fe      10.80000000      12.60000000       1.80000000      55.84500000      242        4
Cr      12.60000000      10.80000000       1.80000000      51.99610000      243        3
Ni      12.60000000      12.60000000       0.00000000      58.69340000      244        2
Fe      10.80000000      10.80000000       3.60000000      55.84500000      245        4
Mn      10.80000000      12.60000000       5.40000000      54.93804400      246        5
Ni      12.60000000      10.80000000       5.40000000      58.69340000      247        2
Cr      12.60000000      12.60000000       3.60000000      51.99610000      248        3
Co      10.80000000      10.80000000       7.20000000      58.93319400      249        1
Fe      10.80000000      12.60000000       9.00000000      55.84500000      250        4
Co      12.60000000      10.80000000       9.00000000      58.93319400      251        1
Co      12.60000000      12.60000000       7.20000000      58.93319400      252        1
Mn      10.80000000      10.80000000      10.80000000      54.93804400      253        5
Mn      10.80000000      12.60000000      12.60000000      54.93804400      254        5
Co      12.60000000      10.80000000      12.60000000      58.93319400      255        1
Mn      12.60000000      12.60000000      10.80000000      54.93804400      256        5
