256
Lattice="14.4 0.0 0.0 0.0 14.4 0.0 0.0 0.0 14.4" Properties=species:S:1:pos:R:3:masses:R:1:id:I:1:type:I:1 comment="(written by ASE)" energy=-1026.18880828365 pbc="T T T"
Mn       0.00000000       0.00000000       0.00000000      54.93804400        1        5
Mn       0.00000000       1.80000000       1.80000000      54.93804400        2        5
Ni       1.80000000       0.00000000       1.80000000      58.69340000        3        2
Ni       1.80000000       1.80000000       0.00000000      58.69340000        4        2
Mn       0.00000000       0.00000000       3.60000000      54.93804400        5        5
Fe       0.00000000       1.80000000       5.40000000      55.84500000        6        4
Mn       1.80000000       0.00000000       5.40000000      54.93804400        7        5
Co       1.80000000       1.80000000       3.60000000      58.93319400        8        1
Ni       0.00000000       0.00000000       7.20000000      58.69340000        9        2
Mn       0.00000000       1.80000000       9.00000000      54.93804400       10        5
Mn       1.80000000       0.00000000       9.00000000      54.93804400       11        5
Cr       1.80000000       1.80000000       7.20000000      51.99610000       12        3
Mn       0.00000000       0.00000000      10.80000000      54.93804400       13        5
Mn       0.00000000       1.80000000      12.60000000      54.93804400       14        5
Ni       1.80000000       0.00000000      12.60000000      58.69340000       15        2
Mn       1.80000000       1.80000000      10.80000000      54.93804400       16        5
Mn       0.00000000       3.60000000       0.00000000      54.93804400       17        5
Mn       0.00000000       5.40000000       1.80000000      54.93804400       18        5
Mn       1.80000000       3.60000000       1.80000000      54.93804400       19        5
Ni       1.80000000       5.40000000       0.00000000      58.69340000       20        2
Cr       0.00000000       3.60000000       3.60000000      51.99610000       21        3
Fe       0.00000000       5.40000000       5.40000000      55.84500000       22        4
Fe       1.80000000       3.60000000       5.40000000      55.84500000       23        4
Co       1.80000000       5.40000000       3.60000000      58.93319400       24        1
Co       0.00000000       3.60000000       7.20000000      58.93319400       25        1
Fe       0.00000000       5.40000000       9.00000000      55.84500000       26        4
Fe       1.80000000       3.60000000       9.00000000      55.84500000       27        4
Co       1.80000000       5.40000000       7.20000000      58.93319400       28        1
Ni       0.00000000       3.60000000      10.80000000      58.69340000       29        2
Fe       0.00000000       5.40000000      12.60000000      55.84500000       30        4
Mn       1.80000000       3.60000000      12.60000000      54.93804400       31        5
Cr       1.80000000       5.40000000      10.80000000      51.99610000       32        3
Cr       0.00000000       7.20000000       0.00000000      51.99610000       33        3
Co       0.00000000       9.00000000       1.80000000      58.93319400       34        1
Cr       1.80000000       7.20000000       1.80000000      51.99610000       35        3
Co       1.80000000       9.00000000       0.00000000      58.93319400       36        1
Co       0.00000000       7.20000000       3.60000000      58.93319400       37        1
Fe       0.00000000       9.00000000       5.40000000      55.84500000       38        4
Fe       1.80000000       7.20000000       5.40000000      55.84500000       39        4
Cr       1.80000000       9.00000000       3.60000000      51.99610000       40        3
Co       0.00000000       7.20000000       7.20000000      58.93319400       41        1
Fe       0.00000000       9.00000000       9.00000000      55.84500000       42        4
Fe       1.80000000       7.20000000       9.00000000      55.84500000       43        4
Co       1.80000000       9.00000000       7.20000000      58.93319400       44        1
Co       0.00000000       7.20000000      10.80000000      58.93319400       45        1
Fe       0.00000000       9.00000000      12.60000000      55.84500000       46        4
Cr       1.80000000       7.20000000      12.60000000      51.99610000       47        3
Co       1.80000000       9.00000000      10.80000000      58.93319400       48        1
Cr       0.00000000      10.80000000       0.00000000      51.99610000       49        3
Mn       0.00000000      12.60000000       1.80000000      54.93804400       50        5
Fe       1.80000000      10.80000000       1.80000000      55.84500000       51        4
Ni       1.80000000      12.60000000       0.00000000      58.69340000       52        2
Cr       0.00000000      10.80000000       3.60000000      51.99610000       53        3
Mn       0.00000000      12.60000000       5.40000000      54.93804400       54        5
Mn       1.80000000      10.80000000       5.40000000      54.93804400       55        5
Cr       1.80000000      12.60000000       3.60000000      51.99610000       56        3
Ni       0.00000000      10.80000000       7.20000000      58.69340000       57        2
Mn       0.00000000      12.60000000       9.00000000      54.93804400       58        5
Mn       1.80000000      10.80000000       9.00000000      54.93804400       59        5
Ni       1.80000000      12.60000000       7.20000000      58.69340000       60        2
Ni       0.00000000      10.80000000      10.80000000      58.69340000       61        2
Mn       0.00000000      12.60000000      12.60000000      54.93804400       62        5
Mn       1.80000000      10.80000000      12.60000000      54.93804400       63        5
Ni       1.80000000      12.60000000      10.80000000      58.69340000       64        2
Mn       3.60000000       0.00000000       0.00000000      54.93804400       65        5
Mn       3.60000000       1.80000000       1.80000000      54.93804400       66        5
Ni       5.40000000       0.00000000       1.80000000      58.69340000       67        2
Mn       5.40000000       1.80000000       0.00000000      54.93804400       68        5
Fe       3.60000000       0.00000000       3.60000000      55.84500000       69        4
Co       3.60000000       1.80000000       5.40000000      58.93319400       70        1
Fe       5.40000000       0.00000000       5.40000000      55.84500000       71        4
Co       5.40000000       1.80000000       3.60000000      58.93319400       72        1
Co       3.60000000       0.00000000       7.20000000      58.93319400       73        1
Cr       3.60000000       1.80000000       9.00000000      51.99610000       74        3
Fe       5.40000000       0.00000000       9.00000000      55.84500000       75        4
Co       5.40000000       1.80000000       7.20000000      58.93319400       76        1
Ni       3.60000000       0.00000000      10.80000000      58.69340000       77        2
Mn       3.60000000       1.80000000      12.60000000      54.93804400       78        5
Ni       5.40000000       0.00000000      12.60000000      58.69340000       79        2
Cr       5.40000000       1.80000000      10.80000000      51.99610000       80        3
Mn       3.60000000       3.60000000       0.00000000      54.93804400       81        5
Mn       3.60000000       5.40000000       1.80000000      54.93804400       82        5
Ni       5.40000000       3.60000000       1.80000000      58.69340000       83        2
Ni       5.40000000       5.40000000       0.00000000      58.69340000       84        2
Cr       3.60000000       3.60000000       3.60000000      51.99610000       85        3
Fe       3.60000000       5.40000000       5.40000000      55.84500000       86        4
Fe       5.40000000       3.60000000       5.40000000      55.84500000       87        4
Co       5.40000000       5.40000000       3.60000000      58.93319400       88        1
Fe       3.60000000       3.60000000       7.20000000      55.84500000       89        4
Co       3.60000000       5.40000000       9.00000000      58.93319400       90        1
Cr       5.40000000       3.60000000       9.00000000      51.99610000       91        3
Co       5.40000000       5.40000000       7.20000000      58.93319400       92        1
Co       3.60000000       3.60000000      10.80000000      58.93319400       93        1
Mn       3.60000000       5.40000000      12.60000000      54.93804400       94        5
Ni       5.40000000       3.60000000      12.60000000      58.69340000       95        2
Cr       5.40000000       5.40000000      10.80000000      51.99610000       96        3
Fe       3.60000000       7.20000000       0.00000000      55.84500000       97        4
Fe       3.60000000       9.00000000       1.80000000      55.84500000       98        4
Cr       5.40000000       7.20000000       1.80000000      51.99610000       99        3
Co       5.40000000       9.00000000       0.00000000      58.93319400      100        1
Co       3.60000000       7.20000000       3.60000000      58.93319400      101        1
Fe       3.60000000       9.00000000       5.40000000      55.84500000      102        4
Cr       5.40000000       7.20000000       5.40000000      51.99610000      103        3
Co       5.40000000       9.00000000       3.60000000      58.93319400      104        1
Fe       3.60000000       7.20000000       7.20000000      55.84500000      105        4
Fe       3.60000000       9.00000000       9.00000000      55.84500000      106        4
Co       5.40000000       7.20000000       9.00000000      58.93319400      107        1
Co       5.40000000       9.00000000       7.20000000      58.93319400      108        1
Fe       3.60000000       7.20000000      10.80000000      55.84500000      109        4
Fe       3.60000000       9.00000000      12.60000000      55.84500000      110        4
Co       5.40000000       7.20000000      12.60000000      58.93319400      111        1
Cr       5.40000000       9.00000000      10.80000000      51.99610000      112        3
Cr       3.60000000      10.80000000       0.00000000      51.99610000      113        3
Cr       3.60000000      12.60000000       1.80000000      51.99610000      114        3
Co       5.40000000      10.80000000       1.80000000      58.93319400      115        1
Mn       5.40000000      12.60000000       0.00000000      54.93804400      116        5
Co       3.60000000      10.80000000       3.60000000      58.93319400      117        1
Fe       3.60000000      12.60000000       5.40000000      55.84500000      118        4
Fe       5.40000000      10.80000000       5.40000000      55.84500000      119        4
Fe       5.40000000      12.60000000       3.60000000      55.84500000      120        4
Cr       3.60000000      10.80000000       7.20000000      51.99610000      121        3
Cr       3.60000000      12.60000000       9.00000000      51.99610000      122        3
Fe       5.40000000      10.80000000       9.00000000      55.84500000      123        4
Cr       5.40000000      12.60000000       7.20000000      51.99610000      124        3
Co       3.60000000      10.80000000      10.80000000      58.93319400      125        1
Cr       3.60000000      12.60000000      12.60000000      51.99610000      126        3
Co       5.40000000      10.80000000      12.60000000      58.93319400      127        1
Fe       5.40000000      12.60000000      10.80000000      55.84500000      128        4
Ni       7.20000000       0.00000000       0.00000000      58.69340000      129        2
Mn       7.20000000       1.80000000       1.80000000      54.93804400      130        5
Mn       9.00000000       0.00000000       1.80000000      54.93804400      131        5
Ni       9.00000000       1.80000000       0.00000000      58.69340000      132        2
Cr       7.20000000       0.00000000       3.60000000      51.99610000      133        3
Fe       7.20000000       1.80000000       5.40000000      55.84500000      134        4
Co       9.00000000       0.00000000       5.40000000      58.93319400      135        1
Fe       9.00000000       1.80000000       3.60000000      55.84500000      136        4
Fe       7.20000000       0.00000000       7.20000000      55.84500000      137        4
Co       7.20000000       1.80000000       9.00000000      58.93319400      138        1
Cr       9.00000000       0.00000000       9.00000000      51.99610000      139        3
Co       9.00000000       1.80000000       7.20000000      58.93319400      140        1
Fe       7.20000000       0.00000000      10.80000000      55.84500000      141        4
Ni       7.20000000       1.80000000      12.60000000      58.69340000      142        2
Ni       9.00000000       0.00000000      12.60000000      58.69340000      143        2
Mn       9.00000000       1.80000000      10.80000000      54.93804400      144        5
Mn       7.20000000       3.60000000       0.00000000      54.93804400      145        5
Mn       7.20000000       5.40000000       1.80000000      54.93804400      146        5
Ni       9.00000000       3.60000000       1.80000000      58.69340000      147        2
Ni       9.00000000       5.40000000       0.00000000      58.69340000      148        2
Cr       7.20000000       3.60000000       3.60000000      51.99610000      149        3
Cr       7.20000000       5.40000000       5.40000000      51.99610000      150        3
Co       9.00000000       3.60000000       5.40000000      58.93319400      151        1
Mn       9.00000000       5.40000000       3.60000000      54.93804400      152        5
Fe       7.20000000       3.60000000       7.20000000      55.84500000      153        4
Cr       7.20000000       5.40000000       9.00000000      51.99610000      154        3
Co       9.00000000       3.60000000       9.00000000      58.93319400      155        1
Fe       9.00000000       5.40000000       7.20000000      55.84500000      156        4
Mn       7.20000000       3.60000000      10.80000000      54.93804400      157        5
Ni       7.20000000       5.40000000      12.60000000      58.69340000      158        2
Ni       9.00000000       3.60000000      12.60000000      58.69340000      159        2
Fe       9.00000000       5.40000000      10.80000000      55.84500000      160        4
Mn       7.20000000       7.20000000       0.00000000      54.93804400      161        5
Fe       7.20000000       9.00000000       1.80000000      55.84500000      162        4
Ni       9.00000000       7.20000000       1.80000000      58.69340000      163        2
Ni       9.00000000       9.00000000       0.00000000      58.69340000      164        2
Fe       7.20000000       7.20000000       3.60000000      55.84500000      165        4
Fe       7.20000000       9.00000000       5.40000000      55.84500000      166        4
Ni       9.00000000       7.20000000       5.40000000      58.69340000      167        2
Cr       9.00000000       9.00000000       3.60000000      51.99610000      168        3
Mn       7.20000000       7.20000000       7.20000000      54.93804400      169        5
Co       7.20000000       9.00000000       9.00000000      58.93319400      170        1
Ni       9.00000000       7.20000000       9.00000000      58.69340000      171        2
Cr       9.00000000       9.00000000       7.20000000      51.99610000      172        3
Fe       7.20000000       7.20000000      10.80000000      55.84500000      173        4
Fe       7.20000000       9.00000000      12.60000000      55.84500000      174        4
Cr       9.00000000       7.20000000      12.60000000      51.99610000      175        3
Mn       9.00000000       9.00000000      10.80000000      54.93804400      176        5
Fe       7.20000000      10.80000000       0.00000000      55.84500000      177        4
Mn       7.20000000      12.60000000       1.80000000      54.93804400      178        5
Ni       9.00000000      10.80000000       1.80000000      58.69340000      179        2
Mn       9.00000000      12.60000000       0.00000000      54.93804400      180        5
Co       7.20000000      10.80000000       3.60000000      58.93319400      181        1
Co       7.20000000      12.60000000       5.40000000      58.93319400      182        1
Co       9.00000000      10.80000000       5.40000000      58.93319400      183        1
Mn       9.00000000      12.60000000       3.60000000      54.93804400      184        5
Co       7.20000000      10.80000000       7.20000000      58.93319400      185        1
Co       7.20000000      12.60000000       9.00000000      58.93319400      186        1
Fe       9.00000000      10.80000000       9.00000000      55.84500000      187        4
Fe       9.00000000      12.60000000       7.20000000      55.84500000      188        4
Cr       7.20000000      10.80000000      10.80000000      51.99610000      189        3
Cr       7.20000000      12.60000000      12.60000000      51.99610000      190        3
Ni       9.00000000      10.80000000      12.60000000      58.69340000      191        2
Mn       9.00000000      12.60000000      10.80000000      54.93804400      192        5
Mn      10.80000000       0.00000000       0.00000000      54.93804400      193        5
Ni      10.80000000       1.80000000       1.80000000      58.69340000      194        2
Ni      12.60000000       0.00000000       1.80000000      58.69340000      195        2
Ni      12.60000000       1.80000000       0.00000000      58.69340000      196        2
Mn      10.80000000       0.00000000       3.60000000      54.93804400      197        5
Co      10.80000000       1.80000000       5.40000000      58.93319400      198        1
Cr      12.60000000       0.00000000       5.40000000      51.99610000      199        3
Mn      12.60000000       1.80000000       3.60000000      54.93804400      200        5
Cr      10.80000000       0.00000000       7.20000000      51.99610000      201        3
Fe      10.80000000       1.80000000       9.00000000      55.84500000      202        4
Ni      12.60000000       0.00000000       9.00000000      58.69340000      203        2
Fe      12.60000000       1.80000000       7.20000000      55.84500000      204        4
Ni      10.80000000       0.00000000      10.80000000      58.69340000      205        2
Mn      10.80000000       1.80000000      12.60000000      54.93804400      206        5
Ni      12.60000000       0.00000000      12.60000000      58.69340000      207        2
Mn      12.60000000       1.80000000      10.80000000      54.93804400      208        5
Mn      10.80000000       3.60000000       0.00000000      54.93804400      209        5
Mn      10.80000000       5.40000000       1.80000000      54.93804400      210        5
Ni      12.60000000       3.60000000       1.80000000      58.69340000      211        2
Mn      12.60000000       5.40000000       0.00000000      54.93804400      212        5
Cr      10.80000000       3.60000000       3.60000000      51.99610000      213        3
Cr      10.80000000       5.40000000       5.40000000      51.99610000      214        3
Co      12.60000000       3.60000000       5.40000000      58.93319400      215        1
Co      12.60000000       5.40000000       3.60000000      58.93319400      216        1
Fe      10.80000000       3.60000000       7.20000000      55.84500000      217        4
Co      10.80000000       5.40000000       9.00000000      58.93319400      218        1
Co      12.60000000       3.60000000       9.00000000      58.93319400      219        1
Fe      12.60000000       5.40000000       7.20000000      55.84500000      220        4
Cr      10.80000000       3.60000000      10.80000000      51.99610000      221        3
Cr      10.80000000       5.40000000      12.60000000      51.99610000      222        3
Ni      12.60000000       3.60000000      12.60000000      58.69340000      223        2
Fe      12.60000000       5.40000000      10.80000000      55.84500000      224        4
Mn      10.80000000       7.20000000       0.00000000      54.93804400      225        5
Cr      10.80000000       9.00000000       1.80000000      51.99610000      226        3
Cr      12.60000000       7.20000000       1.80000000      51.99610000      227        3
Ni      12.60000000       9.00000000       0.00000000      58.69340000      228        2
Fe      10.80000000       7.20000000       3.60000000      55.84500000      229        4
Fe      10.80000000       9.00000000       5.40000000      55.84500000      230        4
Fe      12.60000000       7.20000000       5.40000000      55.84500000      231        4
Co      12.60000000       9.00000000       3.60000000      58.93319400      232        1
Co      10.80000000       7.20000000       7.20000000      58.93319400      233        1
Mn      10.80000000       9.00000000       9.00000000      54.93804400      234        5
Co      12.60000000       7.20000000       9.00000000      58.93319400      235        1
Cr      12.60000000       9.00000000       7.20000000      51.99610000      236        3
Cr      10.80000000       7.20000000      10.80000000      51.99610000      237        3
Mn      10.80000000       9.00000000      12.60000000      54.93804400      238        5
Co      12.60000000       7.20000000      12.60000000      58.93319400      239        1
Cr      12.60000000       9.00000000      10.80000000      51.99610000      240        3
Mn      10.80000000      10.80000000       0.00000000      54.93804400      241        5
Ni      10.80000000      12.60000000       1.80000000      58.69340000      242        2
Mn      12.60000000      10.80000000       1.80000000      54.93804400      243        5
Ni      12.60000000      12.60000000       0.00000000      58.69340000      244        2
Mn      10.80000000      10.80000000       3.60000000      54.93804400      245        5
Ni      10.80000000      12.60000000       5.40000000      58.69340000      246        2
Cr      12.60000000      10.80000000       5.40000000      51.99610000      247        3
Ni      12.60000000      12.60000000       3.60000000      58.69340000      248        2
Cr      10.80000000      10.80000000       7.20000000      51.99610000      249        3
Mn      10.80000000      12.60000000       9.00000000      54.93804400      250        5
Ni      12.60000000      10.80000000       9.00000000      58.69340000      251        2
Mn      12.60000000      12.60000000       7.20000000      54.93804400      252        5
Ni      10.80000000      10.80000000      10.80000000      58.69340000      253        2
Mn      10.80000000      12.60000000      12.60000000      54.93804400      254        5
Mn      12.60000000      10.80000000      12.60000000      54.93804400      255        5
Mn      12.60000000      12.60000000      10.80000000      54.93804400      256        5
