256
Lattice="14.4 0.0 0.0 0.0 14.4 0.0 0.0 0.0 14.4" Properties=species:S:1:pos:R:3:masses:R:1:id:I:1:type:I:1 comment="(written by ASE)" energy=-1017.78608658798 pbc="T T T"
Co       0.00000000       0.00000000       0.00000000      58.93319400        1        1
Fe       0.00000000       1.80000000       1.80000000      55.84500000        2        4
Cr       1.80000000       0.00000000       1.80000000      51.99610000        3        3
Fe       1.80000000       1.80000000       0.00000000      55.84500000        4        4
Ni       0.00000000       0.00000000       3.60000000      58.69340000        5        2
Fe       0.00000000       1.80000000       5.40000000      55.84500000        6        4
Co       1.80000000       0.00000000       5.40000000      58.93319400        7        1
Co       1.80000000       1.80000000       3.60000000      58.93319400        8        1
Ni       0.00000000       0.00000000       7.20000000      58.69340000        9        2
Co       0.00000000       1.80000000       9.00000000      58.93319400       10        1
Ni       1.80000000       0.00000000       9.00000000      58.69340000       11        2
Fe       1.80000000       1.80000000       7.20000000      55.84500000       12        4
Cr       0.00000000       0.00000000      10.80000000      51.99610000       13        3
Mn       0.00000000       1.80000000      12.60000000      54.93804400       14        5
Ni       1.80000000       0.00000000      12.60000000      58.69340000       15        2
Co       1.80000000       1.80000000      10.80000000      58.93319400       16        1
Mn       0.00000000       3.60000000       0.00000000      54.93804400       17        5
Mn       0.00000000       5.40000000       1.80000000      54.93804400       18        5
Cr       1.80000000       3.60000000       1.80000000      51.99610000       19        3
Co       1.80000000       5.40000000       0.00000000      58.93319400       20        1
Cr       0.00000000       3.60000000       3.60000000      51.99610000       21        3
Cr       0.00000000       5.40000000       5.40000000      51.99610000       22        3
Ni       1.80000000       3.60000000       5.40000000      58.69340000       23        2
Co       1.80000000       5.40000000       3.60000000      58.93319400       24        1
Ni       0.00000000       3.60000000       7.20000000      58.69340000       25        2
Co       0.00000000       5.40000000       9.00000000      58.93319400       26        1
Ni       1.80000000       3.60000000       9.00000000      58.69340000       27        2
Co       1.80000000       5.40000000       7.20000000      58.93319400       28        1
Co       0.00000000       3.60000000      10.80000000      58.93319400       29        1
Ni       0.00000000       5.40000000      12.60000000      58.69340000       30        2
Cr       1.80000000       3.60000000      12.60000000      51.99610000       31        3
Fe       1.80000000       5.40000000      10.80000000      55.84500000       32        4
Ni       0.00000000       7.20000000       0.00000000      58.69340000       33        2
Fe       0.00000000       9.00000000       1.80000000      55.84500000       34        4
Co       1.80000000       7.20000000       1.80000000      58.93319400       35        1
Ni       1.80000000       9.00000000       0.00000000      58.69340000       36        2
Mn       0.00000000       7.20000000       3.60000000      54.93804400       37        5
Mn       0.00000000       9.00000000       5.40000000      54.93804400       38        5
Mn       1.80000000       7.20000000       5.40000000      54.93804400       39        5
Cr       1.80000000       9.00000000       3.60000000      51.99610000       40        3
Cr       0.00000000       7.20000000       7.20000000      51.99610000       41        3
Co       0.00000000       9.00000000       9.00000000      58.93319400       42        1
Ni       1.80000000       7.20000000       9.00000000      58.69340000       43        2
Co       1.80000000       9.00000000       7.20000000      58.93319400       44        1
Cr       0.00000000       7.20000000      10.80000000      51.99610000       45        3
Ni       0.00000000       9.00000000      12.60000000      58.69340000       46        2
Fe       1.80000000       7.20000000      12.60000000      55.84500000       47        4
Fe       1.80000000       9.00000000      10.80000000      55.84500000       48        4
Fe       0.00000000      10.80000000       0.00000000      55.84500000       49        4
Fe       0.00000000      12.60000000       1.80000000      55.84500000       50        4
Ni       1.80000000      10.80000000       1.80000000      58.69340000       51        2
Ni       1.80000000      12.60000000       0.00000000      58.69340000       52        2
Mn       0.00000000      10.80000000       3.60000000      54.93804400       53        5
Co       0.00000000      12.60000000       5.40000000      58.93319400       54        1
Mn       1.80000000      10.80000000       5.40000000      54.93804400       55        5
Co       1.80000000      12.60000000       3.60000000      58.93319400       56        1
Mn       0.00000000      10.80000000       7.20000000      54.93804400       57        5
Fe       0.00000000      12.60000000       9.00000000      55.84500000       58        4
Cr       1.80000000      10.80000000       9.00000000      51.99610000       59        3
Co       1.80000000      12.60000000       7.20000000      58.93319400       60        1
Fe       0.00000000      10.80000000      10.80000000      55.84500000       61        4
Fe       0.00000000      12.60000000      12.60000000      55.84500000       62        4
Fe       1.80000000      10.80000000      12.60000000      55.84500000       63        4
Ni       1.80000000      12.60000000      10.80000000      58.69340000       64        2
Ni       3.60000000       0.00000000       0.00000000      58.69340000       65        2
Ni       3.60000000       1.80000000       1.80000000      58.69340000       66        2
Cr       5.40000000       0.00000000       1.80000000      51.99610000       67        3
Fe       5.40000000       1.80000000       0.00000000      55.84500000       68        4
Mn       3.60000000       0.00000000       3.60000000      54.93804400       69        5
Cr       3.60000000       1.80000000       5.40000000      51.99610000       70        3
Mn       5.40000000       0.00000000       5.40000000      54.93804400       71        5
Co       5.40000000       1.80000000       3.60000000      58.93319400       72        1
Ni       3.60000000       0.00000000       7.20000000      58.69340000       73        2
Fe       3.60000000       1.80000000       9.00000000      55.84500000       74        4
Co       5.40000000       0.00000000       9.00000000      58.93319400       75        1
Cr       5.40000000       1.80000000       7.20000000      51.99610000       76        3
Co       3.60000000       0.00000000      10.80000000      58.93319400       77        1
Ni       3.60000000       1.80000000      12.60000000      58.69340000       78        2
Cr       5.40000000       0.00000000      12.60000000      51.99610000       79        3
Ni       5.40000000       1.80000000      10.80000000      58.69340000       80        2
Fe       3.60000000       3.60000000       0.00000000      55.84500000       81        4
Ni       3.60000000       5.40000000       1.80000000      58.69340000       82        2
Ni       5.40000000       3.60000000       1.80000000      58.69340000       83        2
Fe       5.40000000       5.40000000       0.00000000      55.84500000       84        4
Co       3.60000000       3.60000000       3.60000000      58.93319400       85        1
Cr       3.60000000       5.40000000       5.40000000      51.99610000       86        3
Mn       5.40000000       3.60000000       5.40000000      54.93804400       87        5
Co       5.40000000       5.40000000       3.60000000      58.93319400       88        1
Mn       3.60000000       3.60000000       7.20000000      54.93804400       89        5
Ni       3.60000000       5.40000000       9.00000000      58.69340000       90        2
Cr       5.40000000       3.60000000       9.00000000      51.99610000       91        3
Co       5.40000000       5.40000000       7.20000000      58.93319400       92        1
Fe       3.60000000       3.60000000      10.80000000      55.84500000       93        4
Ni       3.60000000       5.40000000      12.60000000      58.69340000       94        2
Fe       5.40000000       3.60000000      12.60000000      55.84500000       95        4
Fe       5.40000000       5.40000000      10.80000000      55.84500000       96        4
Co       3.60000000       7.20000000       0.00000000      58.93319400       97        1
Co       3.60000000       9.00000000       1.80000000      58.93319400       98        1
Ni       5.40000000       7.20000000       1.80000000      58.69340000       99        2
Co       5.40000000       9.00000000       0.00000000      58.93319400      100        1
Co       3.60000000       7.20000000       3.60000000      58.93319400      101        1
Cr       3.60000000       9.00000000       5.40000000      51.99610000      102        3
Ni       5.40000000       7.20000000       5.40000000      58.69340000      103        2
Fe       5.40000000       9.00000000       3.60000000      55.84500000      104        4
Co       3.60000000       7.20000000       7.20000000      58.93319400      105        1
Ni       3.60000000       9.00000000       9.00000000      58.69340000      106        2
Ni       5.40000000       7.20000000       9.00000000      58.69340000      107        2
Fe       5.40000000       9.00000000       7.20000000      55.84500000      108        4
Fe       3.60000000       7.20000000      10.80000000      55.84500000      109        4
Ni       3.60000000       9.00000000      12.60000000      58.69340000      110        2
Cr       5.40000000       7.20000000      12.60000000      51.99610000      111        3
Fe       5.40000000       9.00000000      10.80000000      55.84500000      112        4
Cr       3.60000000      10.80000000       0.00000000      51.99610000      113        3
Co       3.60000000      12.60000000       1.80000000      58.93319400      114        1
Mn       5.40000000      10.80000000       1.80000000      54.93804400      115        5
Co       5.40000000      12.60000000       0.00000000      58.93319400      116        1
Mn       3.60000000      10.80000000       3.60000000      54.93804400      117        5
Cr       3.60000000      12.60000000       5.40000000      51.99610000      118        3
Fe       5.40000000      10.80000000       5.40000000      55.84500000      119        4
Mn       5.40000000      12.60000000       3.60000000      54.93804400      120        5
Co       3.60000000      10.80000000       7.20000000      58.93319400      121        1
Co       3.60000000      12.60000000       9.00000000      58.93319400      122        1
Mn       5.40000000      10.80000000       9.00000000      54.93804400      123        5
Mn       5.40000000      12.60000000       7.20000000      54.93804400      124        5
Fe       3.60000000      10.80000000      10.80000000      55.84500000      125        4
Fe       3.60000000      12.60000000      12.60000000      55.84500000      126        4
Cr       5.40000000      10.80000000      12.60000000      51.99610000      127        3
Mn       5.40000000      12.60000000      10.80000000      54.93804400      128        5
Co       7.20000000       0.00000000       0.00000000      58.93319400      129        1
Ni       7.20000000       1.80000000       1.80000000      58.69340000      130        2
Co       9.00000000       0.00000000       1.80000000      58.93319400      131        1
Co       9.00000000       1.80000000       0.00000000      58.93319400      132        1
Mn       7.20000000       0.00000000       3.60000000      54.93804400      133        5
Mn       7.20000000       1.80000000       5.40000000      54.93804400      134        5
Mn       9.00000000       0.00000000       5.40000000      54.93804400      135        5
Mn       9.00000000       1.80000000       3.60000000      54.93804400      136        5
Mn       7.20000000       0.00000000       7.20000000      54.93804400      137        5
Co       7.20000000       1.80000000       9.00000000      58.93319400      138        1
Mn       9.00000000       0.00000000       9.00000000      54.93804400      139        5
Mn       9.00000000       1.80000000       7.20000000      54.93804400      140        5
Co       7.20000000       0.00000000      10.80000000      58.93319400      141        1
Ni       7.20000000       1.80000000      12.60000000      58.69340000      142        2
Mn       9.00000000       0.00000000      12.60000000      54.93804400      143        5
Mn       9.00000000       1.80000000      10.80000000      54.93804400      144        5
Ni       7.20000000       3.60000000       0.00000000      58.69340000      145        2
Fe       7.20000000       5.40000000       1.80000000      55.84500000      146        4
Cr       9.00000000       3.60000000       1.80000000      51.99610000      147        3
Fe       9.00000000       5.40000000       0.00000000      55.84500000      148        4
Cr       7.20000000       3.60000000       3.60000000      51.99610000      149        3
Cr       7.20000000       5.40000000       5.40000000      51.99610000      150        3
Mn       9.00000000       3.60000000       5.40000000      54.93804400      151        5
Fe       9.00000000       5.40000000       3.60000000      55.84500000      152        4
Mn       7.20000000       3.60000000       7.20000000      54.93804400      153        5
Ni       7.20000000       5.40000000       9.00000000      58.69340000      154        2
Cr       9.00000000       3.60000000       9.00000000      51.99610000      155        3
Co       9.00000000       5.40000000       7.20000000      58.93319400      156        1
Fe       7.20000000       3.60000000      10.80000000      55.84500000      157        4
Fe       7.20000000       5.40000000      12.60000000      55.84500000      158        4
Cr       9.00000000       3.60000000      12.60000000      51.99610000      159        3
Ni       9.00000000       5.40000000      10.80000000      58.69340000      160        2
Ni       7.20000000       7.20000000       0.00000000      58.69340000      161        2
Cr       7.20000000       9.00000000       1.80000000      51.99610000      162        3
Ni       9.00000000       7.20000000       1.80000000      58.69340000      163        2
Fe       9.00000000       9.00000000       0.00000000      55.84500000      164        4
Fe       7.20000000       7.20000000       3.60000000      55.84500000      165        4
Fe       7.20000000       9.00000000       5.40000000      55.84500000      166        4
Ni       9.00000000       7.20000000       5.40000000      58.69340000      167        2
Ni       9.00000000       9.00000000       3.60000000      58.69340000      168        2
Co       7.20000000       7.20000000       7.20000000      58.93319400      169        1
Cr       7.20000000       9.00000000       9.00000000      51.99610000      170        3
Co       9.00000000       7.20000000       9.00000000      58.93319400      171        1
Fe       9.00000000       9.00000000       7.20000000      55.84500000      172        4
Fe       7.20000000       7.20000000      10.80000000      55.84500000      173        4
Mn       7.20000000       9.00000000      12.60000000      54.93804400      174        5
Cr       9.00000000       7.20000000      12.60000000      51.99610000      175        3
Mn       9.00000000       9.00000000      10.80000000      54.93804400      176        5
Mn       7.20000000      10.80000000       0.00000000      54.93804400      177        5
Mn       7.20000000      12.60000000       1.80000000      54.93804400      178        5
Fe       9.00000000      10.80000000       1.80000000      55.84500000      179        4
Cr       9.00000000      12.60000000       0.00000000      51.99610000      180        3
Cr       7.20000000      10.80000000       3.60000000      51.99610000      181        3
Mn       7.20000000      12.60000000       5.40000000      54.93804400      182        5
Fe       9.00000000      10.80000000       5.40000000      55.84500000      183        4
Mn       9.00000000      12.60000000       3.60000000      54.93804400      184        5
Cr       7.20000000      10.80000000       7.20000000      51.99610000      185        3
Mn       7.20000000      12.60000000       9.00000000      54.93804400      186        5
Mn       9.00000000      10.80000000       9.00000000      54.93804400      187        5
Mn       9.00000000      12.60000000       7.20000000      54.93804400      188        5
Mn       7.20000000      10.80000000      10.80000000      54.93804400      189        5
Mn       7.20000000      12.60000000      12.60000000      54.93804400      190        5
Cr       9.00000000      10.80000000      12.60000000      51.99610000      191        3
Mn       9.00000000      12.60000000      10.80000000      54.93804400      192        5
Cr      10.80000000       0.00000000       0.00000000      51.99610000      193        3
Mn      10.80000000       1.80000000       1.80000000      54.93804400      194        5
Fe      12.60000000       0.00000000       1.80000000      55.84500000      195        4
Mn      12.60000000       1.80000000       0.00000000      54.93804400      196        5
Mn      10.80000000       0.00000000       3.60000000      54.93804400      197        5
Mn      10.80000000       1.80000000       5.40000000      54.93804400      198        5
Co      12.60000000       0.00000000       5.40000000      58.93319400      199        1
Mn      12.60000000       1.80000000       3.60000000      54.93804400      200        5
Mn      10.80000000       0.00000000       7.20000000      54.93804400      201        5
Mn      10.80000000       1.80000000       9.00000000      54.93804400      202        5
Fe      12.60000000       0.00000000       9.00000000      55.84500000      203        4
Cr      12.60000000       1.80000000       7.20000000      51.99610000      204        3
Mn      10.80000000       0.00000000      10.80000000      54.93804400      205        5
Mn      10.80000000       1.80000000      12.60000000      54.93804400      206        5
Cr      12.60000000       0.00000000      12.60000000      51.99610000      207        3
Mn      12.60000000       1.80000000      10.80000000      54.93804400      208        5
Mn      10.80000000       3.60000000       0.00000000      54.93804400      209        5
Ni      10.80000000       5.40000000       1.80000000      58.69340000      210        2
Cr      12.60000000       3.60000000       1.80000000      51.99610000      211        3
Fe      12.60000000       5.40000000       0.00000000      55.84500000      212        4
Mn      10.80000000       3.60000000       3.60000000      54.93804400      213        5
Cr      10.80000000       5.40000000       5.40000000      51.99610000      214        3
Co      12.60000000       3.60000000       5.40000000      58.93319400      215        1
Co      12.60000000       5.40000000       3.60000000      58.93319400      216        1
Co      10.80000000       3.60000000       7.20000000      58.93319400      217        1
Co      10.80000000       5.40000000       9.00000000      58.93319400      218        1
Ni      12.60000000       3.60000000       9.00000000      58.69340000      219        2
Co      12.60000000       5.40000000       7.20000000      58.93319400      220        1
Co      10.80000000       3.60000000      10.80000000      58.93319400      221        1
Fe      10.80000000       5.40000000      12.60000000      55.84500000      222        4
Cr      12.60000000       3.60000000      12.60000000      51.99610000      223        3
Ni      12.60000000       5.40000000      10.80000000      58.69340000      224        2
Ni      10.80000000       7.20000000       0.00000000      58.69340000      225        2
Fe      10.80000000       9.00000000       1.80000000      55.84500000      226        4
Cr      12.60000000       7.20000000       1.80000000      51.99610000      227        3
Fe      12.60000000       9.00000000       0.00000000      55.84500000      228        4
Co      10.80000000       7.20000000       3.60000000      58.93319400      229        1
Cr      10.80000000       9.00000000       5.40000000      51.99610000      230        3
Mn      12.60000000       7.20000000       5.40000000      54.93804400      231        5
Mn      12.60000000       9.00000000       3.60000000      54.93804400      232        5
Mn      10.80000000       7.20000000       7.20000000      54.93804400      233        5
Cr      10.80000000       9.00000000       9.00000000      51.99610000      234        3
Mn      12.60000000       7.20000000       9.00000000      54.93804400      235        5
Co      12.60000000       9.00000000       7.20000000      58.93319400      236        1
Fe      10.80000000       7.20000000      10.80000000      55.84500000      237        4
Fe      10.80000000       9.00000000      12.60000000      55.84500000      238        4
Fe      12.60000000       7.20000000      12.60000000      55.84500000      239        4
Ni      12.60000000       9.00000000      10.80000000      58.69340000      240        2
Fe      10.80000000      10.80000000       0.00000000      55.84500000      241        4
Ni      10.80000000      12.60000000       1.80000000      58.69340000      242        2
Fe      12.60000000      10.80000000       1.80000000      55.84500000      243        4
Ni      12.60000000      12.60000000       0.00000000      58.69340000      244        2
Cr      10.80000000      10.80000000       3.60000000      51.99610000      245        3
Mn      10.80000000      12.60000000       5.40000000      54.93804400      246        5
Mn      12.60000000      10.80000000       5.40000000      54.93804400      247        5
Cr      12.60000000      12.60000000       3.60000000      51.99610000      248        3
Fe      10.80000000      10.80000000       7.20000000      55.84500000      249        4
Cr      10.80000000      12.60000000       9.00000000      51.99610000      250        3
Ni      12.60000000      10.80000000       9.00000000      58.69340000      251        2
Cr      12.60000000      12.60000000       7.20000000      51.99610000      252        3
Co      10.80000000      10.80000000      10.80000000      58.93319400      253        1
Mn      10.80000000      12.60000000      12.60000000      54.93804400      254        5
Cr      12.60000000      10.80000000      12.60000000      51.99610000      255        3
Fe      12.60000000      12.60000000      10.80000000      55.84500000      256        4
