256
Lattice="14.4 0.0 0.0 0.0 14.4 0.0 0.0 0.0 14.4" Properties=species:S:1:pos:R:3:masses:R:1:id:I:1:type:I:1 comment="(written by ASE)" energy=-1019.83088528948 pbc="T T T"
Mn       0.00000000       0.00000000       0.00000000      54.93804400        1        5
Cr       0.00000000       1.80000000       1.80000000      51.99610000        2        3
Mn       1.80000000       0.00000000       1.80000000      54.93804400        3        5
Mn       1.80000000       1.80000000       0.00000000      54.93804400        4        5
Cr       0.00000000       0.00000000       3.60000000      51.99610000        5        3
Co       0.00000000       1.80000000       5.40000000      58.93319400        6        1
Cr       1.80000000       0.00000000       5.40000000      51.99610000        7        3
Mn       1.80000000       1.80000000       3.60000000      54.93804400        8        5
Fe       0.00000000       0.00000000       7.20000000      55.84500000        9        4
Cr       0.00000000       1.80000000       9.00000000      51.99610000       10        3
Cr       1.80000000       0.00000000       9.00000000      51.99610000       11        3
Mn       1.80000000       1.80000000       7.20000000      54.93804400       12        5
Fe       0.00000000       0.00000000      10.80000000      55.84500000       13        4
Cr       0.00000000       1.80000000      12.60000000      51.99610000       14        3
Mn       1.80000000       0.00000000      12.60000000      54.93804400       15        5
Mn       1.80000000       1.80000000      10.80000000      54.93804400       16        5
Mn       0.00000000       3.60000000       0.00000000      54.93804400       17        5
Co       0.00000000       5.40000000       1.80000000      58.93319400       18        1
Mn       1.80000000       3.60000000       1.80000000      54.93804400       19        5
Co       1.80000000       5.40000000       0.00000000      58.93319400       20        1
Co       0.00000000       3.60000000       3.60000000      58.93319400       21        1
Fe       0.00000000       5.40000000       5.40000000      55.84500000       22        4
Co       1.80000000       3.60000000       5.40000000      58.93319400       23        1
Co       1.80000000       5.40000000       3.60000000      58.93319400       24        1
Co       0.00000000       3.60000000       7.20000000      58.93319400       25        1
Co       0.00000000       5.40000000       9.00000000      58.93319400       26        1
Mn       1.80000000       3.60000000       9.00000000      54.93804400       27        5
Co       1.80000000       5.40000000       7.20000000      58.93319400       28        1
Mn       0.00000000       3.60000000      10.80000000      54.93804400       29        5
Mn       0.00000000       5.40000000      12.60000000      54.93804400       30        5
Fe       1.80000000       3.60000000      12.60000000      55.84500000       31        4
Cr       1.80000000       5.40000000      10.80000000      51.99610000       32        3
Co       0.00000000       7.20000000       0.00000000      58.93319400       33        1
Fe       0.00000000       9.00000000       1.80000000      55.84500000       34        4
Co       1.80000000       7.20000000       1.80000000      58.93319400       35        1
Mn       1.80000000       9.00000000       0.00000000      54.93804400       36        5
Mn       0.00000000       7.20000000       3.60000000      54.93804400       37        5
Fe       0.00000000       9.00000000       5.40000000      55.84500000       38        4
Cr       1.80000000       7.20000000       5.40000000      51.99610000       39        3
Ni       1.80000000       9.00000000       3.60000000      58.69340000       40        2
Co       0.00000000       7.20000000       7.20000000      58.93319400       41        1
Mn       0.00000000       9.00000000       9.00000000      54.93804400       42        5
Co       1.80000000       7.20000000       9.00000000      58.93319400       43        1
Mn       1.80000000       9.00000000       7.20000000      54.93804400       44        5
Co       0.00000000       7.20000000      10.80000000      58.93319400       45        1
Co       0.00000000       9.00000000      12.60000000      58.93319400       46        1
Mn       1.80000000       7.20000000      12.60000000      54.93804400       47        5
Mn       1.80000000       9.00000000      10.80000000      54.93804400       48        5
Mn       0.00000000      10.80000000       0.00000000      54.93804400       49        5
Fe       0.00000000      12.60000000       1.80000000      55.84500000       50        4
Ni       1.80000000      10.80000000       1.80000000      58.69340000       51        2
Cr       1.80000000      12.60000000       0.00000000      51.99610000       52        3
Ni       0.00000000      10.80000000       3.60000000      58.69340000       53        2
Fe       0.00000000      12.60000000       5.40000000      55.84500000       54        4
Cr       1.80000000      10.80000000       5.40000000      51.99610000       55        3
Fe       1.80000000      12.60000000       3.60000000      55.84500000       56        4
Cr       0.00000000      10.80000000       7.20000000      51.99610000       57        3
Cr       0.00000000      12.60000000       9.00000000      51.99610000       58        3
Mn       1.80000000      10.80000000       9.00000000      54.93804400       59        5
Mn       1.80000000      12.60000000       7.20000000      54.93804400       60        5
Mn       0.00000000      10.80000000      10.80000000      54.93804400       61        5
Mn       0.00000000      12.60000000      12.60000000      54.93804400       62        5
Cr       1.80000000      10.80000000      12.60000000      51.99610000       63        3
Mn       1.80000000      12.60000000      10.80000000      54.93804400       64        5
Cr       3.60000000       0.00000000       0.00000000      51.99610000       65        3
Cr       3.60000000       1.80000000       1.80000000      51.99610000       66        3
Mn       5.40000000       0.00000000       1.80000000      54.93804400       67        5
Fe       5.40000000       1.80000000       0.00000000      55.84500000       68        4
Mn       3.60000000       0.00000000       3.60000000      54.93804400       69        5
Mn       3.60000000       1.80000000       5.40000000      54.93804400       70        5
Mn       5.40000000       0.00000000       5.40000000      54.93804400       71        5
Mn       5.40000000       1.80000000       3.60000000      54.93804400       72        5
Mn       3.60000000       0.00000000       7.20000000      54.93804400       73        5
Cr       3.60000000       1.80000000       9.00000000      51.99610000       74        3
Mn       5.40000000       0.00000000       9.00000000      54.93804400       75        5
Mn       5.40000000       1.80000000       7.20000000      54.93804400       76        5
Mn       3.60000000       0.00000000      10.80000000      54.93804400       77        5
Cr       3.60000000       1.80000000      12.60000000      51.99610000       78        3
Fe       5.40000000       0.00000000      12.60000000      55.84500000       79        4
Fe       5.40000000       1.80000000      10.80000000      55.84500000       80        4
Ni       3.60000000       3.60000000       0.00000000      58.69340000       81        2
Co       3.60000000       5.40000000       1.80000000      58.93319400       82        1
Fe       5.40000000       3.60000000       1.80000000      55.84500000       83        4
Ni       5.40000000       5.40000000       0.00000000      58.69340000       84        2
Co       3.60000000       3.60000000       3.60000000      58.93319400       85        1
Co       3.60000000       5.40000000       5.40000000      58.93319400       86        1
Co       5.40000000       3.60000000       5.40000000      58.93319400       87        1
Co       5.40000000       5.40000000       3.60000000      58.93319400       88        1
Mn       3.60000000       3.60000000       7.20000000      54.93804400       89        5
Ni       3.60000000       5.40000000       9.00000000      58.69340000       90        2
Cr       5.40000000       3.60000000       9.00000000      51.99610000       91        3
Mn       5.40000000       5.40000000       7.20000000      54.93804400       92        5
Ni       3.60000000       3.60000000      10.80000000      58.69340000       93        2
Ni       3.60000000       5.40000000      12.60000000      58.69340000       94        2
Ni       5.40000000       3.60000000      12.60000000      58.69340000       95        2
Ni       5.40000000       5.40000000      10.80000000      58.69340000       96        2
Fe       3.60000000       7.20000000       0.00000000      55.84500000       97        4
Fe       3.60000000       9.00000000       1.80000000      55.84500000       98        4
Ni       5.40000000       7.20000000       1.80000000      58.69340000       99        2
Mn       5.40000000       9.00000000       0.00000000      54.93804400      100        5
Fe       3.60000000       7.20000000       3.60000000      55.84500000      101        4
Ni       3.60000000       9.00000000       5.40000000      58.69340000      102        2
Ni       5.40000000       7.20000000       5.40000000      58.69340000      103        2
Fe       5.40000000       9.00000000       3.60000000      55.84500000      104        4
Fe       3.60000000       7.20000000       7.20000000      55.84500000      105        4
Mn       3.60000000       9.00000000       9.00000000      54.93804400      106        5
Cr       5.40000000       7.20000000       9.00000000      51.99610000      107        3
Cr       5.40000000       9.00000000       7.20000000      51.99610000      108        3
Fe       3.60000000       7.20000000      10.80000000      55.84500000      109        4
Ni       3.60000000       9.00000000      12.60000000      58.69340000      110        2
Cr       5.40000000       7.20000000      12.60000000      51.99610000      111        3
Cr       5.40000000       9.00000000      10.80000000      51.99610000      112        3
Mn       3.60000000      10.80000000       0.00000000      54.93804400      113        5
Cr       3.60000000      12.60000000       1.80000000      51.99610000      114        3
Cr       5.40000000      10.80000000       1.80000000      51.99610000      115        3
Mn       5.40000000      12.60000000       0.00000000      54.93804400      116        5
Fe       3.60000000      10.80000000       3.60000000      55.84500000      117        4
Mn       3.60000000      12.60000000       5.40000000      54.93804400      118        5
Cr       5.40000000      10.80000000       5.40000000      51.99610000      119        3
Mn       5.40000000      12.60000000       3.60000000      54.93804400      120        5
Mn       3.60000000      10.80000000       7.20000000      54.93804400      121        5
Mn       3.60000000      12.60000000       9.00000000      54.93804400      122        5
Cr       5.40000000      10.80000000       9.00000000      51.99610000      123        3
Mn       5.40000000      12.60000000       7.20000000      54.93804400      124        5
Mn       3.60000000      10.80000000      10.80000000      54.93804400      125        5
Mn       3.60000000      12.60000000      12.60000000      54.93804400      126        5
Cr       5.40000000      10.80000000      12.60000000      51.99610000      127        3
Mn       5.40000000      12.60000000      10.80000000      54.93804400      128        5
Cr       7.20000000       0.00000000       0.00000000      51.99610000      129        3
Fe       7.20000000       1.80000000       1.80000000      55.84500000      130        4
Ni       9.00000000       0.00000000       1.80000000      58.69340000      131        2
Fe       9.00000000       1.80000000       0.00000000      55.84500000      132        4
Mn       7.20000000       0.00000000       3.60000000      54.93804400      133        5
Co       7.20000000       1.80000000       5.40000000      58.93319400      134        1
Fe       9.00000000       0.00000000       5.40000000      55.84500000      135        4
Co       9.00000000       1.80000000       3.60000000      58.93319400      136        1
Mn       7.20000000       0.00000000       7.20000000      54.93804400      137        5
Cr       7.20000000       1.80000000       9.00000000      51.99610000      138        3
Cr       9.00000000       0.00000000       9.00000000      51.99610000      139        3
Mn       9.00000000       1.80000000       7.20000000      54.93804400      140        5
Cr       7.20000000       0.00000000      10.80000000      51.99610000      141        3
Ni       7.20000000       1.80000000      12.60000000      58.69340000      142        2
Cr       9.00000000       0.00000000      12.60000000      51.99610000      143        3
Fe       9.00000000       1.80000000      10.80000000      55.84500000      144        4
Ni       7.20000000       3.60000000       0.00000000      58.69340000      145        2
Fe       7.20000000       5.40000000       1.80000000      55.84500000      146        4
Ni       9.00000000       3.60000000       1.80000000      58.69340000      147        2
Fe       9.00000000       5.40000000       0.00000000      55.84500000      148        4
Co       7.20000000       3.60000000       3.60000000      58.93319400      149        1
Fe       7.20000000       5.40000000       5.40000000      55.84500000      150        4
Co       9.00000000       3.60000000       5.40000000      58.93319400      151        1
Fe       9.00000000       5.40000000       3.60000000      55.84500000      152        4
Mn       7.20000000       3.60000000       7.20000000      54.93804400      153        5
Cr       7.20000000       5.40000000       9.00000000      51.99610000      154        3
Fe       9.00000000       3.60000000       9.00000000      55.84500000      155        4
Co       9.00000000       5.40000000       7.20000000      58.93319400      156        1
Fe       7.20000000       3.60000000      10.80000000      55.84500000      157        4
Ni       7.20000000       5.40000000      12.60000000      58.69340000      158        2
Cr       9.00000000       3.60000000      12.60000000      51.99610000      159        3
Co       9.00000000       5.40000000      10.80000000      58.93319400      160        1
Cr       7.20000000       7.20000000       0.00000000      51.99610000      161        3
Fe       7.20000000       9.00000000       1.80000000      55.84500000      162        4
Ni       9.00000000       7.20000000       1.80000000      58.69340000      163        2
Mn       9.00000000       9.00000000       0.00000000      54.93804400      164        5
Ni       7.20000000       7.20000000       3.60000000      58.69340000      165        2
Cr       7.20000000       9.00000000       5.40000000      51.99610000      166        3
Fe       9.00000000       7.20000000       5.40000000      55.84500000      167        4
Ni       9.00000000       9.00000000       3.60000000      58.69340000      168        2
Ni       7.20000000       7.20000000       7.20000000      58.69340000      169        2
Fe       7.20000000       9.00000000       9.00000000      55.84500000      170        4
Co       9.00000000       7.20000000       9.00000000      58.93319400      171        1
Ni       9.00000000       9.00000000       7.20000000      58.69340000      172        2
Fe       7.20000000       7.20000000      10.80000000      55.84500000      173        4
Mn       7.20000000       9.00000000      12.60000000      54.93804400      174        5
Co       9.00000000       7.20000000      12.60000000      58.93319400      175        1
Co       9.00000000       9.00000000      10.80000000      58.93319400      176        1
Cr       7.20000000      10.80000000       0.00000000      51.99610000      177        3
Fe       7.20000000      12.60000000       1.80000000      55.84500000      178        4
Ni       9.00000000      10.80000000       1.80000000      58.69340000      179        2
Fe       9.00000000      12.60000000       0.00000000      55.84500000      180        4
Fe       7.20000000      10.80000000       3.60000000      55.84500000      181        4
Cr       7.20000000      12.60000000       5.40000000      51.99610000      182        3
Ni       9.00000000      10.80000000       5.40000000      58.69340000      183        2
Ni       9.00000000      12.60000000       3.60000000      58.69340000      184        2
Fe       7.20000000      10.80000000       7.20000000      55.84500000      185        4
Cr       7.20000000      12.60000000       9.00000000      51.99610000      186        3
Cr       9.00000000      10.80000000       9.00000000      51.99610000      187        3
Fe       9.00000000      12.60000000       7.20000000      55.84500000      188        4
Mn       7.20000000      10.80000000      10.80000000      54.93804400      189        5
Mn       7.20000000      12.60000000      12.60000000      54.93804400      190        5
Mn       9.00000000      10.80000000      12.60000000      54.93804400      191        5
Fe       9.00000000      12.60000000      10.80000000      55.84500000      192        4
Ni      10.80000000       0.00000000       0.00000000      58.69340000      193        2
Ni      10.80000000       1.80000000       1.80000000      58.69340000      194        2
Ni      12.60000000       0.00000000       1.80000000      58.69340000      195        2
Cr      12.60000000       1.80000000       0.00000000      51.99610000      196        3
Ni      10.80000000       0.00000000       3.60000000      58.69340000      197        2
Co      10.80000000       1.80000000       5.40000000      58.93319400      198        1
Ni      12.60000000       0.00000000       5.40000000      58.69340000      199        2
Fe      12.60000000       1.80000000       3.60000000      55.84500000      200        4
Ni      10.80000000       0.00000000       7.20000000      58.69340000      201        2
Mn      10.80000000       1.80000000       9.00000000      54.93804400      202        5
Ni      12.60000000       0.00000000       9.00000000      58.69340000      203        2
Fe      12.60000000       1.80000000       7.20000000      55.84500000      204        4
Cr      10.80000000       0.00000000      10.80000000      51.99610000      205        3
Fe      10.80000000       1.80000000      12.60000000      55.84500000      206        4
Cr      12.60000000       0.00000000      12.60000000      51.99610000      207        3
Mn      12.60000000       1.80000000      10.80000000      54.93804400      208        5
Ni      10.80000000       3.60000000       0.00000000      58.69340000      209        2
Ni      10.80000000       5.40000000       1.80000000      58.69340000      210        2
Fe      12.60000000       3.60000000       1.80000000      55.84500000      211        4
Mn      12.60000000       5.40000000       0.00000000      54.93804400      212        5
Co      10.80000000       3.60000000       3.60000000      58.93319400      213        1
Co      10.80000000       5.40000000       5.40000000      58.93319400      214        1
Fe      12.60000000       3.60000000       5.40000000      55.84500000      215        4
Co      12.60000000       5.40000000       3.60000000      58.93319400      216        1
Co      10.80000000       3.60000000       7.20000000      58.93319400      217        1
Co      10.80000000       5.40000000       9.00000000      58.93319400      218        1
Co      12.60000000       3.60000000       9.00000000      58.93319400      219        1
Co      12.60000000       5.40000000       7.20000000      58.93319400      220        1
Co      10.80000000       3.60000000      10.80000000      58.93319400      221        1
Co      10.80000000       5.40000000      12.60000000      58.93319400      222        1
Mn      12.60000000       3.60000000      12.60000000      54.93804400      223        5
Co      12.60000000       5.40000000      10.80000000      58.93319400      224        1
Fe      10.80000000       7.20000000       0.00000000      55.84500000      225        4
Fe      10.80000000       9.00000000       1.80000000      55.84500000      226        4
Cr      12.60000000       7.20000000       1.80000000      51.99610000      227        3
Co      12.60000000       9.00000000       0.00000000      58.93319400      228        1
Fe      10.80000000       7.20000000       3.60000000      55.84500000      229        4
Ni      10.80000000       9.00000000       5.40000000      58.69340000      230        2
Co      12.60000000       7.20000000       5.40000000      58.93319400      231        1
Fe      12.60000000       9.00000000       3.60000000      55.84500000      232        4
Co      10.80000000       7.20000000       7.20000000      58.93319400      233        1
Co      10.80000000       9.00000000       9.00000000      58.93319400      234        1
Co      12.60000000       7.20000000       9.00000000      58.93319400      235        1
Fe      12.60000000       9.00000000       7.20000000      55.84500000      236        4
Co      10.80000000       7.20000000      10.80000000      58.93319400      237        1
Co      10.80000000       9.00000000      12.60000000      58.93319400      238        1
Co      12.60000000       7.20000000      12.60000000      58.93319400      239        1
Co      12.60000000       9.00000000      10.80000000      58.93319400      240        1
Cr      10.80000000      10.80000000       0.00000000      51.99610000      241        3
Ni      10.80000000      12.60000000       1.80000000      58.69340000      242        2
Ni      12.60000000      10.80000000       1.80000000      58.69340000      243        2
Ni      12.60000000      12.60000000       0.00000000      58.69340000      244        2
Ni      10.80000000      10.80000000       3.60000000      58.69340000      245        2
Ni      10.80000000      12.60000000       5.40000000      58.69340000      246        2
Ni      12.60000000      10.80000000       5.40000000      58.69340000      247        2
Ni      12.60000000      12.60000000       3.60000000      58.69340000      248        2
Ni      10.80000000      10.80000000       7.20000000      58.69340000      249        2
Fe      10.80000000      12.60000000       9.00000000      55.84500000      250        4
Fe      12.60000000      10.80000000       9.00000000      55.84500000      251        4
Ni      12.60000000      12.60000000       7.20000000      58.69340000      252        2
Cr      10.80000000      10.80000000      10.80000000      51.99610000      253        3
Fe      10.80000000      12.60000000      12.60000000      55.84500000      254        4
Mn      12.60000000      10.80000000      12.60000000      54.93804400      255        5
Cr      12.60000000      12.60000000      10.80000000      51.99610000      256        3
