256
Lattice="14.4 0.0 0.0 0.0 14.4 0.0 0.0 0.0 14.4" Properties=species:S:1:pos:R:3:masses:R:1:id:I:1:type:I:1 comment="(written by ASE)" energy=-1024.94704531719 pbc="T T T"
Mn       0.00000000       0.00000000       0.00000000      54.93804400        1        5
Mn       0.00000000       1.80000000       1.80000000      54.93804400        2        5
Cr       1.80000000       0.00000000       1.80000000      51.99610000        3        3
Ni       1.80000000       1.80000000       0.00000000      58.69340000        4        2
Ni       0.00000000       0.00000000       3.60000000      58.69340000        5        2
Mn       0.00000000       1.80000000       5.40000000      54.93804400        6        5
Cr       1.80000000       0.00000000       5.40000000      51.99610000        7        3
Mn       1.80000000       1.80000000       3.60000000      54.93804400        8        5
Cr       0.00000000       0.00000000       7.20000000      51.99610000        9        3
Mn       0.00000000       1.80000000       9.00000000      54.93804400       10        5
Ni       1.80000000       0.00000000       9.00000000      58.69340000       11        2
Mn       1.80000000       1.80000000       7.20000000      54.93804400       12        5
Co       0.00000000       0.00000000      10.80000000      58.93319400       13        1
Co       0.00000000       1.80000000      12.60000000      58.93319400       14        1
Co       1.80000000       0.00000000      12.60000000      58.93319400       15        1
Ni       1.80000000       1.80000000      10.80000000      58.69340000       16        2
Co       0.00000000       3.60000000       0.00000000      58.93319400       17        1
Co       0.00000000       5.40000000       1.80000000      58.93319400       18        1
Cr       1.80000000       3.60000000       1.80000000      51.99610000       19        3
Mn       1.80000000       5.40000000       0.00000000      54.93804400       20        5
Ni       0.00000000       3.60000000       3.60000000      58.69340000       21        2
Mn       0.00000000       5.40000000       5.40000000      54.93804400       22        5
Cr       1.80000000       3.60000000       5.40000000      51.99610000       23        3
Mn       1.80000000       5.40000000       3.60000000      54.93804400       24        5
Ni       0.00000000       3.60000000       7.20000000      58.69340000       25        2
Mn       0.00000000       5.40000000       9.00000000      54.93804400       26        5
Cr       1.80000000       3.60000000       9.00000000      51.99610000       27        3
Fe       1.80000000       5.40000000       7.20000000      55.84500000       28        4
Mn       0.00000000       3.60000000      10.80000000      54.93804400       29        5
Cr       0.00000000       5.40000000      12.60000000      51.99610000       30        3
Mn       1.80000000       3.60000000      12.60000000      54.93804400       31        5
Ni       1.80000000       5.40000000      10.80000000      58.69340000       32        2
Fe       0.00000000       7.20000000       0.00000000      55.84500000       33        4
Fe       0.00000000       9.00000000       1.80000000      55.84500000       34        4
Ni       1.80000000       7.20000000       1.80000000      58.69340000       35        2
Cr       1.80000000       9.00000000       0.00000000      51.99610000       36        3
Cr       0.00000000       7.20000000       3.60000000      51.99610000       37        3
Fe       0.00000000       9.00000000       5.40000000      55.84500000       38        4
Cr       1.80000000       7.20000000       5.40000000      51.99610000       39        3
Fe       1.80000000       9.00000000       3.60000000      55.84500000       40        4
Fe       0.00000000       7.20000000       7.20000000      55.84500000       41        4
Fe       0.00000000       9.00000000       9.00000000      55.84500000       42        4
Fe       1.80000000       7.20000000       9.00000000      55.84500000       43        4
Fe       1.80000000       9.00000000       7.20000000      55.84500000       44        4
Co       0.00000000       7.20000000      10.80000000      58.93319400       45        1
Fe       0.00000000       9.00000000      12.60000000      55.84500000       46        4
Fe       1.80000000       7.20000000      12.60000000      55.84500000       47        4
Fe       1.80000000       9.00000000      10.80000000      55.84500000       48        4
Mn       0.00000000      10.80000000       0.00000000      54.93804400       49        5
Mn       0.00000000      12.60000000       1.80000000      54.93804400       50        5
Co       1.80000000      10.80000000       1.80000000      58.93319400       51        1
Ni       1.80000000      12.60000000       0.00000000      58.69340000       52        2
Cr       0.00000000      10.80000000       3.60000000      51.99610000       53        3
Ni       0.00000000      12.60000000       5.40000000      58.69340000       54        2
Fe       1.80000000      10.80000000       5.40000000      55.84500000       55        4
Co       1.80000000      12.60000000       3.60000000      58.93319400       56        1
Fe       0.00000000      10.80000000       7.20000000      55.84500000       57        4
Fe       0.00000000      12.60000000       9.00000000      55.84500000       58        4
Fe       1.80000000      10.80000000       9.00000000      55.84500000       59        4
Fe       1.80000000      12.60000000       7.20000000      55.84500000       60        4
Fe       0.00000000      10.80000000      10.80000000      55.84500000       61        4
Cr       0.00000000      12.60000000      12.60000000      51.99610000       62        3
Co       1.80000000      10.80000000      12.60000000      58.93319400       63        1
Ni       1.80000000      12.60000000      10.80000000      58.69340000       64        2
Mn       3.60000000       0.00000000       0.00000000      54.93804400       65        5
Co       3.60000000       1.80000000       1.80000000      58.93319400       66        1
Cr       5.40000000       0.00000000       1.80000000      51.99610000       67        3
Co       5.40000000       1.80000000       0.00000000      58.93319400       68        1
Mn       3.60000000       0.00000000       3.60000000      54.93804400       69        5
Cr       3.60000000       1.80000000       5.40000000      51.99610000       70        3
Ni       5.40000000       0.00000000       5.40000000      58.69340000       71        2
Mn       5.40000000       1.80000000       3.60000000      54.93804400       72        5
Mn       3.60000000       0.00000000       7.20000000      54.93804400       73        5
Cr       3.60000000       1.80000000       9.00000000      51.99610000       74        3
Ni       5.40000000       0.00000000       9.00000000      58.69340000       75        2
Mn       5.40000000       1.80000000       7.20000000      54.93804400       76        5
Mn       3.60000000       0.00000000      10.80000000      54.93804400       77        5
Cr       3.60000000       1.80000000      12.60000000      51.99610000       78        3
Ni       5.40000000       0.00000000      12.60000000      58.69340000       79        2
Co       5.40000000       1.80000000      10.80000000      58.93319400       80        1
Co       3.60000000       3.60000000       0.00000000      58.93319400       81        1
Co       3.60000000       5.40000000       1.80000000      58.93319400       82        1
Co       5.40000000       3.60000000       1.80000000      58.93319400       83        1
Co       5.40000000       5.40000000       0.00000000      58.93319400       84        1
Ni       3.60000000       3.60000000       3.60000000      58.69340000       85        2
Mn       3.60000000       5.40000000       5.40000000      54.93804400       86        5
Ni       5.40000000       3.60000000       5.40000000      58.69340000       87        2
Co       5.40000000       5.40000000       3.60000000      58.93319400       88        1
Mn       3.60000000       3.60000000       7.20000000      54.93804400       89        5
Cr       3.60000000       5.40000000       9.00000000      51.99610000       90        3
Ni       5.40000000       3.60000000       9.00000000      58.69340000       91        2
Fe       5.40000000       5.40000000       7.20000000      55.84500000       92        4
Mn       3.60000000       3.60000000      10.80000000      54.93804400       93        5
Ni       3.60000000       5.40000000      12.60000000      58.69340000       94        2
Fe       5.40000000       3.60000000      12.60000000      55.84500000       95        4
Fe       5.40000000       5.40000000      10.80000000      55.84500000       96        4
Mn       3.60000000       7.20000000       0.00000000      54.93804400       97        5
Mn       3.60000000       9.00000000       1.80000000      54.93804400       98        5
Ni       5.40000000       7.20000000       1.80000000      58.69340000       99        2
Co       5.40000000       9.00000000       0.00000000      58.93319400      100        1
Cr       3.60000000       7.20000000       3.60000000      51.99610000      101        3
Fe       3.60000000       9.00000000       5.40000000      55.84500000      102        4
Ni       5.40000000       7.20000000       5.40000000      58.69340000      103        2
Mn       5.40000000       9.00000000       3.60000000      54.93804400      104        5
Fe       3.60000000       7.20000000       7.20000000      55.84500000      105        4
Fe       3.60000000       9.00000000       9.00000000      55.84500000      106        4
Fe       5.40000000       7.20000000       9.00000000      55.84500000      107        4
Fe       5.40000000       9.00000000       7.20000000      55.84500000      108        4
Fe       3.60000000       7.20000000      10.80000000      55.84500000      109        4
Ni       3.60000000       9.00000000      12.60000000      58.69340000      110        2
Fe       5.40000000       7.20000000      12.60000000      55.84500000      111        4
Co       5.40000000       9.00000000      10.80000000      58.93319400      112        1
Co       3.60000000      10.80000000       0.00000000      58.93319400      113        1
Mn       3.60000000      12.60000000       1.80000000      54.93804400      114        5
Cr       5.40000000      10.80000000       1.80000000      51.99610000      115        3
Ni       5.40000000      12.60000000       0.00000000      58.69340000      116        2
Ni       3.60000000      10.80000000       3.60000000      58.69340000      117        2
Mn       3.60000000      12.60000000       5.40000000      54.93804400      118        5
Cr       5.40000000      10.80000000       5.40000000      51.99610000      119        3
Cr       5.40000000      12.60000000       3.60000000      51.99610000      120        3
Fe       3.60000000      10.80000000       7.20000000      55.84500000      121        4
Co       3.60000000      12.60000000       9.00000000      58.93319400      122        1
Ni       5.40000000      10.80000000       9.00000000      58.69340000      123        2
Co       5.40000000      12.60000000       7.20000000      58.93319400      124        1
Mn       3.60000000      10.80000000      10.80000000      54.93804400      125        5
Mn       3.60000000      12.60000000      12.60000000      54.93804400      126        5
Cr       5.40000000      10.80000000      12.60000000      51.99610000      127        3
Cr       5.40000000      12.60000000      10.80000000      51.99610000      128        3
Co       7.20000000       0.00000000       0.00000000      58.93319400      129        1
Ni       7.20000000       1.80000000       1.80000000      58.69340000      130        2
Co       9.00000000       0.00000000       1.80000000      58.93319400      131        1
Mn       9.00000000       1.80000000       0.00000000      54.93804400      132        5
Mn       7.20000000       0.00000000       3.60000000      54.93804400      133        5
Cr       7.20000000       1.80000000       5.40000000      51.99610000      134        3
Co       9.00000000       0.00000000       5.40000000      58.93319400      135        1
Co       9.00000000       1.80000000       3.60000000      58.93319400      136        1
Co       7.20000000       0.00000000       7.20000000      58.93319400      137        1
Co       7.20000000       1.80000000       9.00000000      58.93319400      138        1
Cr       9.00000000       0.00000000       9.00000000      51.99610000      139        3
Ni       9.00000000       1.80000000       7.20000000      58.69340000      140        2
Co       7.20000000       0.00000000      10.80000000      58.93319400      141        1
Co       7.20000000       1.80000000      12.60000000      58.93319400      142        1
Ni       9.00000000       0.00000000      12.60000000      58.69340000      143        2
Mn       9.00000000       1.80000000      10.80000000      54.93804400      144        5
Fe       7.20000000       3.60000000       0.00000000      55.84500000      145        4
Cr       7.20000000       5.40000000       1.80000000      51.99610000      146        3
Cr       9.00000000       3.60000000       1.80000000      51.99610000      147        3
Fe       9.00000000       5.40000000       0.00000000      55.84500000      148        4
Mn       7.20000000       3.60000000       3.60000000      54.93804400      149        5
Co       7.20000000       5.40000000       5.40000000      58.93319400      150        1
Ni       9.00000000       3.60000000       5.40000000      58.69340000      151        2
Co       9.00000000       5.40000000       3.60000000      58.93319400      152        1
Mn       7.20000000       3.60000000       7.20000000      54.93804400      153        5
Fe       7.20000000       5.40000000       9.00000000      55.84500000      154        4
Ni       9.00000000       3.60000000       9.00000000      58.69340000      155        2
Co       9.00000000       5.40000000       7.20000000      58.93319400      156        1
Fe       7.20000000       3.60000000      10.80000000      55.84500000      157        4
Fe       7.20000000       5.40000000      12.60000000      55.84500000      158        4
Cr       9.00000000       3.60000000      12.60000000      51.99610000      159        3
Fe       9.00000000       5.40000000      10.80000000      55.84500000      160        4
Co       7.20000000       7.20000000       0.00000000      58.93319400      161        1
Cr       7.20000000       9.00000000       1.80000000      51.99610000      162        3
Fe       9.00000000       7.20000000       1.80000000      55.84500000      163        4
Mn       9.00000000       9.00000000       0.00000000      54.93804400      164        5
Mn       7.20000000       7.20000000       3.60000000      54.93804400      165        5
Cr       7.20000000       9.00000000       5.40000000      51.99610000      166        3
Ni       9.00000000       7.20000000       5.40000000      58.69340000      167        2
Mn       9.00000000       9.00000000       3.60000000      54.93804400      168        5
Fe       7.20000000       7.20000000       7.20000000      55.84500000      169        4
Fe       7.20000000       9.00000000       9.00000000      55.84500000      170        4
Fe       9.00000000       7.20000000       9.00000000      55.84500000      171        4
Co       9.00000000       9.00000000       7.20000000      58.93319400      172        1
Fe       7.20000000       7.20000000      10.80000000      55.84500000      173        4
Ni       7.20000000       9.00000000      12.60000000      58.69340000      174        2
Cr       9.00000000       7.20000000      12.60000000      51.99610000      175        3
Fe       9.00000000       9.00000000      10.80000000      55.84500000      176        4
Mn       7.20000000      10.80000000       0.00000000      54.93804400      177        5
Ni       7.20000000      12.60000000       1.80000000      58.69340000      178        2
Cr       9.00000000      10.80000000       1.80000000      51.99610000      179        3
Co       9.00000000      12.60000000       0.00000000      58.93319400      180        1
Mn       7.20000000      10.80000000       3.60000000      54.93804400      181        5
Ni       7.20000000      12.60000000       5.40000000      58.69340000      182        2
Cr       9.00000000      10.80000000       5.40000000      51.99610000      183        3
Co       9.00000000      12.60000000       3.60000000      58.93319400      184        1
Mn       7.20000000      10.80000000       7.20000000      54.93804400      185        5
Mn       7.20000000      12.60000000       9.00000000      54.93804400      186        5
Cr       9.00000000      10.80000000       9.00000000      51.99610000      187        3
Ni       9.00000000      12.60000000       7.20000000      58.69340000      188        2
Mn       7.20000000      10.80000000      10.80000000      54.93804400      189        5
Mn       7.20000000      12.60000000      12.60000000      54.93804400      190        5
Cr       9.00000000      10.80000000      12.60000000      51.99610000      191        3
Ni       9.00000000      12.60000000      10.80000000      58.69340000      192        2
Ni      10.80000000       0.00000000       0.00000000      58.69340000      193        2
Mn      10.80000000       1.80000000       1.80000000      54.93804400      194        5
Cr      12.60000000       0.00000000       1.80000000      51.99610000      195        3
Cr      12.60000000       1.80000000       0.00000000      51.99610000      196        3
Ni      10.80000000       0.00000000       3.60000000      58.69340000      197        2
Mn      10.80000000       1.80000000       5.40000000      54.93804400      198        5
Co      12.60000000       0.00000000       5.40000000      58.93319400      199        1
Co      12.60000000       1.80000000       3.60000000      58.93319400      200        1
Mn      10.80000000       0.00000000       7.20000000      54.93804400      201        5
Cr      10.80000000       1.80000000       9.00000000      51.99610000      202        3
Mn      12.60000000       0.00000000       9.00000000      54.93804400      203        5
Cr      12.60000000       1.80000000       7.20000000      51.99610000      204        3
Mn      10.80000000       0.00000000      10.80000000      54.93804400      205        5
Cr      10.80000000       1.80000000      12.60000000      51.99610000      206        3
Mn      12.60000000       0.00000000      12.60000000      54.93804400      207        5
Cr      12.60000000       1.80000000      10.80000000      51.99610000      208        3
Mn      10.80000000       3.60000000       0.00000000      54.93804400      209        5
Fe      10.80000000       5.40000000       1.80000000      55.84500000      210        4
Ni      12.60000000       3.60000000       1.80000000      58.69340000      211        2
Fe      12.60000000       5.40000000       0.00000000      55.84500000      212        4
Ni      10.80000000       3.60000000       3.60000000      58.69340000      213        2
Co      10.80000000       5.40000000       5.40000000      58.93319400      214        1
Co      12.60000000       3.60000000       5.40000000      58.93319400      215        1
Co      12.60000000       5.40000000       3.60000000      58.93319400      216        1
Mn      10.80000000       3.60000000       7.20000000      54.93804400      217        5
Co      10.80000000       5.40000000       9.00000000      58.93319400      218        1
Ni      12.60000000       3.60000000       9.00000000      58.69340000      219        2
Co      12.60000000       5.40000000       7.20000000      58.93319400      220        1
Co      10.80000000       3.60000000      10.80000000      58.93319400      221        1
Fe      10.80000000       5.40000000      12.60000000      55.84500000      222        4
Mn      12.60000000       3.60000000      12.60000000      54.93804400      223        5
Cr      12.60000000       5.40000000      10.80000000      51.99610000      224        3
Fe      10.80000000       7.20000000       0.00000000      55.84500000      225        4
Fe      10.80000000       9.00000000       1.80000000      55.84500000      226        4
Fe      12.60000000       7.20000000       1.80000000      55.84500000      227        4
Fe      12.60000000       9.00000000       0.00000000      55.84500000      228        4
Fe      10.80000000       7.20000000       3.60000000      55.84500000      229        4
Co      10.80000000       9.00000000       5.40000000      58.93319400      230        1
Ni      12.60000000       7.20000000       5.40000000      58.69340000      231        2
Fe      12.60000000       9.00000000       3.60000000      55.84500000      232        4
Co      10.80000000       7.20000000       7.20000000      58.93319400      233        1
Mn      10.80000000       9.00000000       9.00000000      54.93804400      234        5
Ni      12.60000000       7.20000000       9.00000000      58.69340000      235        2
Co      12.60000000       9.00000000       7.20000000      58.93319400      236        1
Fe      10.80000000       7.20000000      10.80000000      55.84500000      237        4
Mn      10.80000000       9.00000000      12.60000000      54.93804400      238        5
Fe      12.60000000       7.20000000      12.60000000      55.84500000      239        4
Cr      12.60000000       9.00000000      10.80000000      51.99610000      240        3
Ni      10.80000000      10.80000000       0.00000000      58.69340000      241        2
Mn      10.80000000      12.60000000       1.80000000      54.93804400      242        5
Cr      12.60000000      10.80000000       1.80000000      51.99610000      243        3
Cr      12.60000000      12.60000000       0.00000000      51.99610000      244        3
Ni      10.80000000      10.80000000       3.60000000      58.69340000      245        2
Co      10.80000000      12.60000000       5.40000000      58.93319400      246        1
Mn      12.60000000      10.80000000       5.40000000      54.93804400      247        5
Mn      12.60000000      12.60000000       3.60000000      54.93804400      248        5
Ni      10.80000000      10.80000000       7.20000000      58.69340000      249        2
Mn      10.80000000      12.60000000       9.00000000      54.93804400      250        5
Mn      12.60000000      10.80000000       9.00000000      54.93804400      251        5
Cr      12.60000000      12.60000000       7.20000000      51.99610000      252        3
Ni      10.80000000      10.80000000      10.80000000      58.69340000      253        2
Mn      10.80000000      12.60000000      12.60000000      54.93804400      254        5
Fe      12.60000000      10.80000000      12.60000000      55.84500000      255        4
Cr      12.60000000      12.60000000      10.80000000      51.99610000      256        3
