256
Lattice="14.4 0.0 0.0 0.0 14.4 0.0 0.0 0.0 14.4" Properties=species:S:1:pos:R:3:masses:R:1:id:I:1:type:I:1 comment="(written by ASE)" energy=-1018.75173795193 pbc="T T T"
Mn       0.00000000       0.00000000       0.00000000      54.93804400        1        5
Co       0.00000000       1.80000000       1.80000000      58.93319400        2        1
Cr       1.80000000       0.00000000       1.80000000      51.99610000        3        3
Ni       1.80000000       1.80000000       0.00000000      58.69340000        4        2
Ni       0.00000000       0.00000000       3.60000000      58.69340000        5        2
Co       0.00000000       1.80000000       5.40000000      58.93319400        6        1
Fe       1.80000000       0.00000000       5.40000000      55.84500000        7        4
Cr       1.80000000       1.80000000       3.60000000      51.99610000        8        3
Ni       0.00000000       0.00000000       7.20000000      58.69340000        9        2
Fe       0.00000000       1.80000000       9.00000000      55.84500000       10        4
Co       1.80000000       0.00000000       9.00000000      58.93319400       11        1
Cr       1.80000000       1.80000000       7.20000000      51.99610000       12        3
Cr       0.00000000       0.00000000      10.80000000      51.99610000       13        3
Mn       0.00000000       1.80000000      12.60000000      54.93804400       14        5
Mn       1.80000000       0.00000000      12.60000000      54.93804400       15        5
Ni       1.80000000       1.80000000      10.80000000      58.69340000       16        2
Ni       0.00000000       3.60000000       0.00000000      58.69340000       17        2
Co       0.00000000       5.40000000       1.80000000      58.93319400       18        1
Cr       1.80000000       3.60000000       1.80000000      51.99610000       19        3
Cr       1.80000000       5.40000000       0.00000000      51.99610000       20        3
Co       0.00000000       3.60000000       3.60000000      58.93319400       21        1
Co       0.00000000       5.40000000       5.40000000      58.93319400       22        1
Co       1.80000000       3.60000000       5.40000000      58.93319400       23        1
Co       1.80000000       5.40000000       3.60000000      58.93319400       24        1
Fe       0.00000000       3.60000000       7.20000000      55.84500000       25        4
Ni       0.00000000       5.40000000       9.00000000      58.69340000       26        2
Fe       1.80000000       3.60000000       9.00000000      55.84500000       27        4
Cr       1.80000000       5.40000000       7.20000000      51.99610000       28        3
Fe       0.00000000       3.60000000      10.80000000      55.84500000       29        4
Fe       0.00000000       5.40000000      12.60000000      55.84500000       30        4
Mn       1.80000000       3.60000000      12.60000000      54.93804400       31        5
Cr       1.80000000       5.40000000      10.80000000      51.99610000       32        3
Co       0.00000000       7.20000000       0.00000000      58.93319400       33        1
Co       0.00000000       9.00000000       1.80000000      58.93319400       34        1
Co       1.80000000       7.20000000       1.80000000      58.93319400       35        1
Co       1.80000000       9.00000000       0.00000000      58.93319400       36        1
Co       0.00000000       7.20000000       3.60000000      58.93319400       37        1
Cr       0.00000000       9.00000000       5.40000000      51.99610000       38        3
Ni       1.80000000       7.20000000       5.40000000      58.69340000       39        2
Cr       1.80000000       9.00000000       3.60000000      51.99610000       40        3
Fe       0.00000000       7.20000000       7.20000000      55.84500000       41        4
Co       0.00000000       9.00000000       9.00000000      58.93319400       42        1
Cr       1.80000000       7.20000000       9.00000000      51.99610000       43        3
Fe       1.80000000       9.00000000       7.20000000      55.84500000       44        4
Co       0.00000000       7.20000000      10.80000000      58.93319400       45        1
Co       0.00000000       9.00000000      12.60000000      58.93319400       46        1
Co       1.80000000       7.20000000      12.60000000      58.93319400       47        1
Co       1.80000000       9.00000000      10.80000000      58.93319400       48        1
Co       0.00000000      10.80000000       0.00000000      58.93319400       49        1
Cr       0.00000000      12.60000000       1.80000000      51.99610000       50        3
Fe       1.80000000      10.80000000       1.80000000      55.84500000       51        4
Ni       1.80000000      12.60000000       0.00000000      58.69340000       52        2
Ni       0.00000000      10.80000000       3.60000000      58.69340000       53        2
Cr       0.00000000      12.60000000       5.40000000      51.99610000       54        3
Fe       1.80000000      10.80000000       5.40000000      55.84500000       55        4
Ni       1.80000000      12.60000000       3.60000000      58.69340000       56        2
Ni       0.00000000      10.80000000       7.20000000      58.69340000       57        2
Ni       0.00000000      12.60000000       9.00000000      58.69340000       58        2
Cr       1.80000000      10.80000000       9.00000000      51.99610000       59        3
Fe       1.80000000      12.60000000       7.20000000      55.84500000       60        4
Fe       0.00000000      10.80000000      10.80000000      55.84500000       61        4
Mn       0.00000000      12.60000000      12.60000000      54.93804400       62        5
Cr       1.80000000      10.80000000      12.60000000      51.99610000       63        3
Fe       1.80000000      12.60000000      10.80000000      55.84500000       64        4
Mn       3.60000000       0.00000000       0.00000000      54.93804400       65        5
Ni       3.60000000       1.80000000       1.80000000      58.69340000       66        2
Mn       5.40000000       0.00000000       1.80000000      54.93804400       67        5
Mn       5.40000000       1.80000000       0.00000000      54.93804400       68        5
Fe       3.60000000       0.00000000       3.60000000      55.84500000       69        4
Co       3.60000000       1.80000000       5.40000000      58.93319400       70        1
Fe       5.40000000       0.00000000       5.40000000      55.84500000       71        4
Fe       5.40000000       1.80000000       3.60000000      55.84500000       72        4
Cr       3.60000000       0.00000000       7.20000000      51.99610000       73        3
Fe       3.60000000       1.80000000       9.00000000      55.84500000       74        4
Mn       5.40000000       0.00000000       9.00000000      54.93804400       75        5
Ni       5.40000000       1.80000000       7.20000000      58.69340000       76        2
Cr       3.60000000       0.00000000      10.80000000      51.99610000       77        3
Mn       3.60000000       1.80000000      12.60000000      54.93804400       78        5
Fe       5.40000000       0.00000000      12.60000000      55.84500000       79        4
Ni       5.40000000       1.80000000      10.80000000      58.69340000       80        2
Mn       3.60000000       3.60000000       0.00000000      54.93804400       81        5
Fe       3.60000000       5.40000000       1.80000000      55.84500000       82        4
Mn       5.40000000       3.60000000       1.80000000      54.93804400       83        5
Mn       5.40000000       5.40000000       0.00000000      54.93804400       84        5
Co       3.60000000       3.60000000       3.60000000      58.93319400       85        1
Cr       3.60000000       5.40000000       5.40000000      51.99610000       86        3
Ni       5.40000000       3.60000000       5.40000000      58.69340000       87        2
Ni       5.40000000       5.40000000       3.60000000      58.69340000       88        2
Fe       3.60000000       3.60000000       7.20000000      55.84500000       89        4
Ni       3.60000000       5.40000000       9.00000000      58.69340000       90        2
Mn       5.40000000       3.60000000       9.00000000      54.93804400       91        5
Ni       5.40000000       5.40000000       7.20000000      58.69340000       92        2
Mn       3.60000000       3.60000000      10.80000000      54.93804400       93        5
Ni       3.60000000       5.40000000      12.60000000      58.69340000       94        2
Mn       5.40000000       3.60000000      12.60000000      54.93804400       95        5
Mn       5.40000000       5.40000000      10.80000000      54.93804400       96        5
Cr       3.60000000       7.20000000       0.00000000      51.99610000       97        3
Ni       3.60000000       9.00000000       1.80000000      58.69340000       98        2
Cr       5.40000000       7.20000000       1.80000000      51.99610000       99        3
Mn       5.40000000       9.00000000       0.00000000      54.93804400      100        5
Fe       3.60000000       7.20000000       3.60000000      55.84500000      101        4
Ni       3.60000000       9.00000000       5.40000000      58.69340000      102        2
Cr       5.40000000       7.20000000       5.40000000      51.99610000      103        3
Fe       5.40000000       9.00000000       3.60000000      55.84500000      104        4
Fe       3.60000000       7.20000000       7.20000000      55.84500000      105        4
Ni       3.60000000       9.00000000       9.00000000      58.69340000      106        2
Cr       5.40000000       7.20000000       9.00000000      51.99610000      107        3
Fe       5.40000000       9.00000000       7.20000000      55.84500000      108        4
Fe       3.60000000       7.20000000      10.80000000      55.84500000      109        4
Fe       3.60000000       9.00000000      12.60000000      55.84500000      110        4
Mn       5.40000000       7.20000000      12.60000000      54.93804400      111        5
Cr       5.40000000       9.00000000      10.80000000      51.99610000      112        3
Cr       3.60000000      10.80000000       0.00000000      51.99610000      113        3
Mn       3.60000000      12.60000000       1.80000000      54.93804400      114        5
Ni       5.40000000      10.80000000       1.80000000      58.69340000      115        2
Fe       5.40000000      12.60000000       0.00000000      55.84500000      116        4
Mn       3.60000000      10.80000000       3.60000000      54.93804400      117        5
Mn       3.60000000      12.60000000       5.40000000      54.93804400      118        5
Mn       5.40000000      10.80000000       5.40000000      54.93804400      119        5
Mn       5.40000000      12.60000000       3.60000000      54.93804400      120        5
Mn       3.60000000      10.80000000       7.20000000      54.93804400      121        5
Ni       3.60000000      12.60000000       9.00000000      58.69340000      122        2
Mn       5.40000000      10.80000000       9.00000000      54.93804400      123        5
Mn       5.40000000      12.60000000       7.20000000      54.93804400      124        5
Fe       3.60000000      10.80000000      10.80000000      55.84500000      125        4
Ni       3.60000000      12.60000000      12.60000000      58.69340000      126        2
Mn       5.40000000      10.80000000      12.60000000      54.93804400      127        5
Fe       5.40000000      12.60000000      10.80000000      55.84500000      128        4
Cr       7.20000000       0.00000000       0.00000000      51.99610000      129        3
Cr       7.20000000       1.80000000       1.80000000      51.99610000      130        3
Co       9.00000000       0.00000000       1.80000000      58.93319400      131        1
Fe       9.00000000       1.80000000       0.00000000      55.84500000      132        4
Ni       7.20000000       0.00000000       3.60000000      58.69340000      133        2
Cr       7.20000000       1.80000000       5.40000000      51.99610000      134        3
Fe       9.00000000       0.00000000       5.40000000      55.84500000      135        4
Co       9.00000000       1.80000000       3.60000000      58.93319400      136        1
Mn       7.20000000       0.00000000       7.20000000      54.93804400      137        5
Mn       7.20000000       1.80000000       9.00000000      54.93804400      138        5
Mn       9.00000000       0.00000000       9.00000000      54.93804400      139        5
Ni       9.00000000       1.80000000       7.20000000      58.69340000      140        2
Mn       7.20000000       0.00000000      10.80000000      54.93804400      141        5
Mn       7.20000000       1.80000000      12.60000000      54.93804400      142        5
Mn       9.00000000       0.00000000      12.60000000      54.93804400      143        5
Ni       9.00000000       1.80000000      10.80000000      58.69340000      144        2
Ni       7.20000000       3.60000000       0.00000000      58.69340000      145        2
Fe       7.20000000       5.40000000       1.80000000      55.84500000      146        4
Ni       9.00000000       3.60000000       1.80000000      58.69340000      147        2
Cr       9.00000000       5.40000000       0.00000000      51.99610000      148        3
Fe       7.20000000       3.60000000       3.60000000      55.84500000      149        4
Cr       7.20000000       5.40000000       5.40000000      51.99610000      150        3
Co       9.00000000       3.60000000       5.40000000      58.93319400      151        1
Cr       9.00000000       5.40000000       3.60000000      51.99610000      152        3
Fe       7.20000000       3.60000000       7.20000000      55.84500000      153        4
Ni       7.20000000       5.40000000       9.00000000      58.69340000      154        2
Fe       9.00000000       3.60000000       9.00000000      55.84500000      155        4
Cr       9.00000000       5.40000000       7.20000000      51.99610000      156        3
Mn       7.20000000       3.60000000      10.80000000      54.93804400      157        5
Mn       7.20000000       5.40000000      12.60000000      54.93804400      158        5
Mn       9.00000000       3.60000000      12.60000000      54.93804400      159        5
Mn       9.00000000       5.40000000      10.80000000      54.93804400      160        5
Mn       7.20000000       7.20000000       0.00000000      54.93804400      161        5
Mn       7.20000000       9.00000000       1.80000000      54.93804400      162        5
Ni       9.00000000       7.20000000       1.80000000      58.69340000      163        2
Mn       9.00000000       9.00000000       0.00000000      54.93804400      164        5
Ni       7.20000000       7.20000000       3.60000000      58.69340000      165        2
Cr       7.20000000       9.00000000       5.40000000      51.99610000      166        3
Ni       9.00000000       7.20000000       5.40000000      58.69340000      167        2
Fe       9.00000000       9.00000000       3.60000000      55.84500000      168        4
Fe       7.20000000       7.20000000       7.20000000      55.84500000      169        4
Ni       7.20000000       9.00000000       9.00000000      58.69340000      170        2
Co       9.00000000       7.20000000       9.00000000      58.93319400      171        1
Fe       9.00000000       9.00000000       7.20000000      55.84500000      172        4
Fe       7.20000000       7.20000000      10.80000000      55.84500000      173        4
Ni       7.20000000       9.00000000      12.60000000      58.69340000      174        2
Mn       9.00000000       7.20000000      12.60000000      54.93804400      175        5
Cr       9.00000000       9.00000000      10.80000000      51.99610000      176        3
Mn       7.20000000      10.80000000       0.00000000      54.93804400      177        5
Co       7.20000000      12.60000000       1.80000000      58.93319400      178        1
Cr       9.00000000      10.80000000       1.80000000      51.99610000      179        3
Fe       9.00000000      12.60000000       0.00000000      55.84500000      180        4
Co       7.20000000      10.80000000       3.60000000      58.93319400      181        1
Mn       7.20000000      12.60000000       5.40000000      54.93804400      182        5
Fe       9.00000000      10.80000000       5.40000000      55.84500000      183        4
Fe       9.00000000      12.60000000       3.60000000      55.84500000      184        4
Mn       7.20000000      10.80000000       7.20000000      54.93804400      185        5
Mn       7.20000000      12.60000000       9.00000000      54.93804400      186        5
Mn       9.00000000      10.80000000       9.00000000      54.93804400      187        5
Mn       9.00000000      12.60000000       7.20000000      54.93804400      188        5
Mn       7.20000000      10.80000000      10.80000000      54.93804400      189        5
Ni       7.20000000      12.60000000      12.60000000      58.69340000      190        2
Mn       9.00000000      10.80000000      12.60000000      54.93804400      191        5
Mn       9.00000000      12.60000000      10.80000000      54.93804400      192        5
Mn      10.80000000       0.00000000       0.00000000      54.93804400      193        5
Cr      10.80000000       1.80000000       1.80000000      51.99610000      194        3
Mn      12.60000000       0.00000000       1.80000000      54.93804400      195        5
Fe      12.60000000       1.80000000       0.00000000      55.84500000      196        4
Co      10.80000000       0.00000000       3.60000000      58.93319400      197        1
Cr      10.80000000       1.80000000       5.40000000      51.99610000      198        3
Co      12.60000000       0.00000000       5.40000000      58.93319400      199        1
Co      12.60000000       1.80000000       3.60000000      58.93319400      200        1
Fe      10.80000000       0.00000000       7.20000000      55.84500000      201        4
Cr      10.80000000       1.80000000       9.00000000      51.99610000      202        3
Fe      12.60000000       0.00000000       9.00000000      55.84500000      203        4
Ni      12.60000000       1.80000000       7.20000000      58.69340000      204        2
Mn      10.80000000       0.00000000      10.80000000      54.93804400      205        5
Mn      10.80000000       1.80000000      12.60000000      54.93804400      206        5
Mn      12.60000000       0.00000000      12.60000000      54.93804400      207        5
Mn      12.60000000       1.80000000      10.80000000      54.93804400      208        5
Co      10.80000000       3.60000000       0.00000000      58.93319400      209        1
Co      10.80000000       5.40000000       1.80000000      58.93319400      210        1
Co      12.60000000       3.60000000       1.80000000      58.93319400      211        1
Co      12.60000000       5.40000000       0.00000000      58.93319400      212        1
Co      10.80000000       3.60000000       3.60000000      58.93319400      213        1
Co      10.80000000       5.40000000       5.40000000      58.93319400      214        1
Co      12.60000000       3.60000000       5.40000000      58.93319400      215        1
Cr      12.60000000       5.40000000       3.60000000      51.99610000      216        3
Fe      10.80000000       3.60000000       7.20000000      55.84500000      217        4
Co      10.80000000       5.40000000       9.00000000      58.93319400      218        1
Ni      12.60000000       3.60000000       9.00000000      58.69340000      219        2
Cr      12.60000000       5.40000000       7.20000000      51.99610000      220        3
Fe      10.80000000       3.60000000      10.80000000      55.84500000      221        4
Ni      10.80000000       5.40000000      12.60000000      58.69340000      222        2
Cr      12.60000000       3.60000000      12.60000000      51.99610000      223        3
Cr      12.60000000       5.40000000      10.80000000      51.99610000      224        3
Ni      10.80000000       7.20000000       0.00000000      58.69340000      225        2
Fe      10.80000000       9.00000000       1.80000000      55.84500000      226        4
Co      12.60000000       7.20000000       1.80000000      58.93319400      227        1
Cr      12.60000000       9.00000000       0.00000000      51.99610000      228        3
Co      10.80000000       7.20000000       3.60000000      58.93319400      229        1
Cr      10.80000000       9.00000000       5.40000000      51.99610000      230        3
Co      12.60000000       7.20000000       5.40000000      58.93319400      231        1
Cr      12.60000000       9.00000000       3.60000000      51.99610000      232        3
Co      10.80000000       7.20000000       7.20000000      58.93319400      233        1
Co      10.80000000       9.00000000       9.00000000      58.93319400      234        1
Co      12.60000000       7.20000000       9.00000000      58.93319400      235        1
Co      12.60000000       9.00000000       7.20000000      58.93319400      236        1
Co      10.80000000       7.20000000      10.80000000      58.93319400      237        1
Fe      10.80000000       9.00000000      12.60000000      55.84500000      238        4
Co      12.60000000       7.20000000      12.60000000      58.93319400      239        1
Cr      12.60000000       9.00000000      10.80000000      51.99610000      240        3
Mn      10.80000000      10.80000000       0.00000000      54.93804400      241        5
Ni      10.80000000      12.60000000       1.80000000      58.69340000      242        2
Fe      12.60000000      10.80000000       1.80000000      55.84500000      243        4
Mn      12.60000000      12.60000000       0.00000000      54.93804400      244        5
Ni      10.80000000      10.80000000       3.60000000      58.69340000      245        2
Cr      10.80000000      12.60000000       5.40000000      51.99610000      246        3
Co      12.60000000      10.80000000       5.40000000      58.93319400      247        1
Fe      12.60000000      12.60000000       3.60000000      55.84500000      248        4
Fe      10.80000000      10.80000000       7.20000000      55.84500000      249        4
Ni      10.80000000      12.60000000       9.00000000      58.69340000      250        2
Cr      12.60000000      10.80000000       9.00000000      51.99610000      251        3
Co      12.60000000      12.60000000       7.20000000      58.93319400      252        1
Fe      10.80000000      10.80000000      10.80000000      55.84500000      253        4
Mn      10.80000000      12.60000000      12.60000000      54.93804400      254        5
Ni      12.60000000      10.80000000      12.60000000      58.69340000      255        2
Mn      12.60000000      12.60000000      10.80000000      54.93804400      256        5
