256
Lattice="14.4 0.0 0.0 0.0 14.4 0.0 0.0 0.0 14.4" Properties=species:S:1:pos:R:3:masses:R:1:id:I:1:type:I:1 comment="(written by ASE)" energy=-1020.62818394289 pbc="T T T"
Ni       0.00000000       0.00000000       0.00000000      58.69340000        1        2
Co       0.00000000       1.80000000       1.80000000      58.93319400        2        1
Fe       1.80000000       0.00000000       1.80000000      55.84500000        3        4
Co       1.80000000       1.80000000       0.00000000      58.93319400        4        1
Ni       0.00000000       0.00000000       3.60000000      58.69340000        5        2
Co       0.00000000       1.80000000       5.40000000      58.93319400        6        1
Co       1.80000000       0.00000000       5.40000000      58.93319400        7        1
Cr       1.80000000       1.80000000       3.60000000      51.99610000        8        3
Ni       0.00000000       0.00000000       7.20000000      58.69340000        9        2
Co       0.00000000       1.80000000       9.00000000      58.93319400       10        1
Cr       1.80000000       0.00000000       9.00000000      51.99610000       11        3
Cr       1.80000000       1.80000000       7.20000000      51.99610000       12        3
Ni       0.00000000       0.00000000      10.80000000      58.69340000       13        2
Mn       0.00000000       1.80000000      12.60000000      54.93804400       14        5
Co       1.80000000       0.00000000      12.60000000      58.93319400       15        1
Cr       1.80000000       1.80000000      10.80000000      51.99610000       16        3
Fe       0.00000000       3.60000000       0.00000000      55.84500000       17        4
Fe       0.00000000       5.40000000       1.80000000      55.84500000       18        4
Cr       1.80000000       3.60000000       1.80000000      51.99610000       19        3
Ni       1.80000000       5.40000000       0.00000000      58.69340000       20        2
Fe       0.00000000       3.60000000       3.60000000      55.84500000       21        4
Fe       0.00000000       5.40000000       5.40000000      55.84500000       22        4
Co       1.80000000       3.60000000       5.40000000      58.93319400       23        1
Cr       1.80000000       5.40000000       3.60000000      51.99610000       24        3
Cr       0.00000000       3.60000000       7.20000000      51.99610000       25        3
Fe       0.00000000       5.40000000       9.00000000      55.84500000       26        4
Fe       1.80000000       3.60000000       9.00000000      55.84500000       27        4
Fe       1.80000000       5.40000000       7.20000000      55.84500000       28        4
Co       0.00000000       3.60000000      10.80000000      58.93319400       29        1
Cr       0.00000000       5.40000000      12.60000000      51.99610000       30        3
Cr       1.80000000       3.60000000      12.60000000      51.99610000       31        3
Cr       1.80000000       5.40000000      10.80000000      51.99610000       32        3
Co       0.00000000       7.20000000       0.00000000      58.93319400       33        1
Co       0.00000000       9.00000000       1.80000000      58.93319400       34        1
Cr       1.80000000       7.20000000       1.80000000      51.99610000       35        3
Cr       1.80000000       9.00000000       0.00000000      51.99610000       36        3
Fe       0.00000000       7.20000000       3.60000000      55.84500000       37        4
Fe       0.00000000       9.00000000       5.40000000      55.84500000       38        4
Fe       1.80000000       7.20000000       5.40000000      55.84500000       39        4
Fe       1.80000000       9.00000000       3.60000000      55.84500000       40        4
Fe       0.00000000       7.20000000       7.20000000      55.84500000       41        4
Fe       0.00000000       9.00000000       9.00000000      55.84500000       42        4
Fe       1.80000000       7.20000000       9.00000000      55.84500000       43        4
Cr       1.80000000       9.00000000       7.20000000      51.99610000       44        3
Fe       0.00000000       7.20000000      10.80000000      55.84500000       45        4
Ni       0.00000000       9.00000000      12.60000000      58.69340000       46        2
Co       1.80000000       7.20000000      12.60000000      58.93319400       47        1
Fe       1.80000000       9.00000000      10.80000000      55.84500000       48        4
Ni       0.00000000      10.80000000       0.00000000      58.69340000       49        2
Ni       0.00000000      12.60000000       1.80000000      58.69340000       50        2
Fe       1.80000000      10.80000000       1.80000000      55.84500000       51        4
Cr       1.80000000      12.60000000       0.00000000      51.99610000       52        3
Ni       0.00000000      10.80000000       3.60000000      58.69340000       53        2
Mn       0.00000000      12.60000000       5.40000000      54.93804400       54        5
Co       1.80000000      10.80000000       5.40000000      58.93319400       55        1
Fe       1.80000000      12.60000000       3.60000000      55.84500000       56        4
Ni       0.00000000      10.80000000       7.20000000      58.69340000       57        2
Mn       0.00000000      12.60000000       9.00000000      54.93804400       58        5
Co       1.80000000      10.80000000       9.00000000      58.93319400       59        1
Mn       1.80000000      12.60000000       7.20000000      54.93804400       60        5
Cr       0.00000000      10.80000000      10.80000000      51.99610000       61        3
Co       0.00000000      12.60000000      12.60000000      58.93319400       62        1
Co       1.80000000      10.80000000      12.60000000      58.93319400       63        1
Cr       1.80000000      12.60000000      10.80000000      51.99610000       64        3
Cr       3.60000000       0.00000000       0.00000000      51.99610000       65        3
Cr       3.60000000       1.80000000       1.80000000      51.99610000       66        3
Co       5.40000000       0.00000000       1.80000000      58.93319400       67        1
Fe       5.40000000       1.80000000       0.00000000      55.84500000       68        4
Fe       3.60000000       0.00000000       3.60000000      55.84500000       69        4
Fe       3.60000000       1.80000000       5.40000000      55.84500000       70        4
Ni       5.40000000       0.00000000       5.40000000      58.69340000       71        2
Ni       5.40000000       1.80000000       3.60000000      58.69340000       72        2
Fe       3.60000000       0.00000000       7.20000000      55.84500000       73        4
Co       3.60000000       1.80000000       9.00000000      58.93319400       74        1
Cr       5.40000000       0.00000000       9.00000000      51.99610000       75        3
Co       5.40000000       1.80000000       7.20000000      58.93319400       76        1
Fe       3.60000000       0.00000000      10.80000000      55.84500000       77        4
Fe       3.60000000       1.80000000      12.60000000      55.84500000       78        4
Fe       5.40000000       0.00000000      12.60000000      55.84500000       79        4
Fe       5.40000000       1.80000000      10.80000000      55.84500000       80        4
Fe       3.60000000       3.60000000       0.00000000      55.84500000       81        4
Co       3.60000000       5.40000000       1.80000000      58.93319400       82        1
Ni       5.40000000       3.60000000       1.80000000      58.69340000       83        2
Ni       5.40000000       5.40000000       0.00000000      58.69340000       84        2
Co       3.60000000       3.60000000       3.60000000      58.93319400       85        1
Cr       3.60000000       5.40000000       5.40000000      51.99610000       86        3
Co       5.40000000       3.60000000       5.40000000      58.93319400       87        1
Ni       5.40000000       5.40000000       3.60000000      58.69340000       88        2
Cr       3.60000000       3.60000000       7.20000000      51.99610000       89        3
Fe       3.60000000       5.40000000       9.00000000      55.84500000       90        4
Cr       5.40000000       3.60000000       9.00000000      51.99610000       91        3
Fe       5.40000000       5.40000000       7.20000000      55.84500000       92        4
Cr       3.60000000       3.60000000      10.80000000      51.99610000       93        3
Co       3.60000000       5.40000000      12.60000000      58.93319400       94        1
Fe       5.40000000       3.60000000      12.60000000      55.84500000       95        4
Cr       5.40000000       5.40000000      10.80000000      51.99610000       96        3
Mn       3.60000000       7.20000000       0.00000000      54.93804400       97        5
Ni       3.60000000       9.00000000       1.80000000      58.69340000       98        2
Mn       5.40000000       7.20000000       1.80000000      54.93804400       99        5
Ni       5.40000000       9.00000000       0.00000000      58.69340000      100        2
Co       3.60000000       7.20000000       3.60000000      58.93319400      101        1
Cr       3.60000000       9.00000000       5.40000000      51.99610000      102        3
Co       5.40000000       7.20000000       5.40000000      58.93319400      103        1
Mn       5.40000000       9.00000000       3.60000000      54.93804400      104        5
Fe       3.60000000       7.20000000       7.20000000      55.84500000      105        4
Co       3.60000000       9.00000000       9.00000000      58.93319400      106        1
Fe       5.40000000       7.20000000       9.00000000      55.84500000      107        4
Mn       5.40000000       9.00000000       7.20000000      54.93804400      108        5
Fe       3.60000000       7.20000000      10.80000000      55.84500000      109        4
Cr       3.60000000       9.00000000      12.60000000      51.99610000      110        3
Cr       5.40000000       7.20000000      12.60000000      51.99610000      111        3
Fe       5.40000000       9.00000000      10.80000000      55.84500000      112        4
Co       3.60000000      10.80000000       0.00000000      58.93319400      113        1
Co       3.60000000      12.60000000       1.80000000      58.93319400      114        1
Mn       5.40000000      10.80000000       1.80000000      54.93804400      115        5
Ni       5.40000000      12.60000000       0.00000000      58.69340000      116        2
Ni       3.60000000      10.80000000       3.60000000      58.69340000      117        2
Cr       3.60000000      12.60000000       5.40000000      51.99610000      118        3
Co       5.40000000      10.80000000       5.40000000      58.93319400      119        1
Ni       5.40000000      12.60000000       3.60000000      58.69340000      120        2
Mn       3.60000000      10.80000000       7.20000000      54.93804400      121        5
Co       3.60000000      12.60000000       9.00000000      58.93319400      122        1
Mn       5.40000000      10.80000000       9.00000000      54.93804400      123        5
Ni       5.40000000      12.60000000       7.20000000      58.69340000      124        2
Cr       3.60000000      10.80000000      10.80000000      51.99610000      125        3
Cr       3.60000000      12.60000000      12.60000000      51.99610000      126        3
Co       5.40000000      10.80000000      12.60000000      58.93319400      127        1
Cr       5.40000000      12.60000000      10.80000000      51.99610000      128        3
Cr       7.20000000       0.00000000       0.00000000      51.99610000      129        3
Ni       7.20000000       1.80000000       1.80000000      58.69340000      130        2
Mn       9.00000000       0.00000000       1.80000000      54.93804400      131        5
Fe       9.00000000       1.80000000       0.00000000      55.84500000      132        4
Mn       7.20000000       0.00000000       3.60000000      54.93804400      133        5
Ni       7.20000000       1.80000000       5.40000000      58.69340000      134        2
Mn       9.00000000       0.00000000       5.40000000      54.93804400      135        5
Mn       9.00000000       1.80000000       3.60000000      54.93804400      136        5
Mn       7.20000000       0.00000000       7.20000000      54.93804400      137        5
Ni       7.20000000       1.80000000       9.00000000      58.69340000      138        2
Ni       9.00000000       0.00000000       9.00000000      58.69340000      139        2
Mn       9.00000000       1.80000000       7.20000000      54.93804400      140        5
Fe       7.20000000       0.00000000      10.80000000      55.84500000      141        4
Fe       7.20000000       1.80000000      12.60000000      55.84500000      142        4
Fe       9.00000000       0.00000000      12.60000000      55.84500000      143        4
Co       9.00000000       1.80000000      10.80000000      58.93319400      144        1
Ni       7.20000000       3.60000000       0.00000000      58.69340000      145        2
Mn       7.20000000       5.40000000       1.80000000      54.93804400      146        5
Ni       9.00000000       3.60000000       1.80000000      58.69340000      147        2
Ni       9.00000000       5.40000000       0.00000000      58.69340000      148        2
Mn       7.20000000       3.60000000       3.60000000      54.93804400      149        5
Ni       7.20000000       5.40000000       5.40000000      58.69340000      150        2
Mn       9.00000000       3.60000000       5.40000000      54.93804400      151        5
Mn       9.00000000       5.40000000       3.60000000      54.93804400      152        5
Mn       7.20000000       3.60000000       7.20000000      54.93804400      153        5
Co       7.20000000       5.40000000       9.00000000      58.93319400      154        1
Ni       9.00000000       3.60000000       9.00000000      58.69340000      155        2
Mn       9.00000000       5.40000000       7.20000000      54.93804400      156        5
Fe       7.20000000       3.60000000      10.80000000      55.84500000      157        4
Co       7.20000000       5.40000000      12.60000000      58.93319400      158        1
Fe       9.00000000       3.60000000      12.60000000      55.84500000      159        4
Cr       9.00000000       5.40000000      10.80000000      51.99610000      160        3
Mn       7.20000000       7.20000000       0.00000000      54.93804400      161        5
Ni       7.20000000       9.00000000       1.80000000      58.69340000      162        2
Mn       9.00000000       7.20000000       1.80000000      54.93804400      163        5
Mn       9.00000000       9.00000000       0.00000000      54.93804400      164        5
Mn       7.20000000       7.20000000       3.60000000      54.93804400      165        5
Ni       7.20000000       9.00000000       5.40000000      58.69340000      166        2
Co       9.00000000       7.20000000       5.40000000      58.93319400      167        1
Mn       9.00000000       9.00000000       3.60000000      54.93804400      168        5
Cr       7.20000000       7.20000000       7.20000000      51.99610000      169        3
Cr       7.20000000       9.00000000       9.00000000      51.99610000      170        3
Co       9.00000000       7.20000000       9.00000000      58.93319400      171        1
Fe       9.00000000       9.00000000       7.20000000      55.84500000      172        4
Fe       7.20000000       7.20000000      10.80000000      55.84500000      173        4
Co       7.20000000       9.00000000      12.60000000      58.93319400      174        1
Ni       9.00000000       7.20000000      12.60000000      58.69340000      175        2
Cr       9.00000000       9.00000000      10.80000000      51.99610000      176        3
Mn       7.20000000      10.80000000       0.00000000      54.93804400      177        5
Mn       7.20000000      12.60000000       1.80000000      54.93804400      178        5
Mn       9.00000000      10.80000000       1.80000000      54.93804400      179        5
Mn       9.00000000      12.60000000       0.00000000      54.93804400      180        5
Mn       7.20000000      10.80000000       3.60000000      54.93804400      181        5
Mn       7.20000000      12.60000000       5.40000000      54.93804400      182        5
Co       9.00000000      10.80000000       5.40000000      58.93319400      183        1
Mn       9.00000000      12.60000000       3.60000000      54.93804400      184        5
Ni       7.20000000      10.80000000       7.20000000      58.69340000      185        2
Co       7.20000000      12.60000000       9.00000000      58.93319400      186        1
Fe       9.00000000      10.80000000       9.00000000      55.84500000      187        4
Mn       9.00000000      12.60000000       7.20000000      54.93804400      188        5
Cr       7.20000000      10.80000000      10.80000000      51.99610000      189        3
Cr       7.20000000      12.60000000      12.60000000      51.99610000      190        3
Mn       9.00000000      10.80000000      12.60000000      54.93804400      191        5
Ni       9.00000000      12.60000000      10.80000000      58.69340000      192        2
Ni      10.80000000       0.00000000       0.00000000      58.69340000      193        2
Co      10.80000000       1.80000000       1.80000000      58.93319400      194        1
Mn      12.60000000       0.00000000       1.80000000      54.93804400      195        5
Ni      12.60000000       1.80000000       0.00000000      58.69340000      196        2
Mn      10.80000000       0.00000000       3.60000000      54.93804400      197        5
Ni      10.80000000       1.80000000       5.40000000      58.69340000      198        2
Mn      12.60000000       0.00000000       5.40000000      54.93804400      199        5
Ni      12.60000000       1.80000000       3.60000000      58.69340000      200        2
Mn      10.80000000       0.00000000       7.20000000      54.93804400      201        5
Mn      10.80000000       1.80000000       9.00000000      54.93804400      202        5
Mn      12.60000000       0.00000000       9.00000000      54.93804400      203        5
Mn      12.60000000       1.80000000       7.20000000      54.93804400      204        5
Mn      10.80000000       0.00000000      10.80000000      54.93804400      205        5
Ni      10.80000000       1.80000000      12.60000000      58.69340000      206        2
Mn      12.60000000       0.00000000      12.60000000      54.93804400      207        5
Mn      12.60000000       1.80000000      10.80000000      54.93804400      208        5
Fe      10.80000000       3.60000000       0.00000000      55.84500000      209        4
Co      10.80000000       5.40000000       1.80000000      58.93319400      210        1
Fe      12.60000000       3.60000000       1.80000000      55.84500000      211        4
Cr      12.60000000       5.40000000       0.00000000      51.99610000      212        3
Co      10.80000000       3.60000000       3.60000000      58.93319400      213        1
Cr      10.80000000       5.40000000       5.40000000      51.99610000      214        3
Fe      12.60000000       3.60000000       5.40000000      55.84500000      215        4
Cr      12.60000000       5.40000000       3.60000000      51.99610000      216        3
Ni      10.80000000       3.60000000       7.20000000      58.69340000      217        2
Co      10.80000000       5.40000000       9.00000000      58.93319400      218        1
Ni      12.60000000       3.60000000       9.00000000      58.69340000      219        2
Fe      12.60000000       5.40000000       7.20000000      55.84500000      220        4
Ni      10.80000000       3.60000000      10.80000000      58.69340000      221        2
Co      10.80000000       5.40000000      12.60000000      58.93319400      222        1
Co      12.60000000       3.60000000      12.60000000      58.93319400      223        1
Fe      12.60000000       5.40000000      10.80000000      55.84500000      224        4
Mn      10.80000000       7.20000000       0.00000000      54.93804400      225        5
Co      10.80000000       9.00000000       1.80000000      58.93319400      226        1
Cr      12.60000000       7.20000000       1.80000000      51.99610000      227        3
Mn      12.60000000       9.00000000       0.00000000      54.93804400      228        5
Co      10.80000000       7.20000000       3.60000000      58.93319400      229        1
Cr      10.80000000       9.00000000       5.40000000      51.99610000      230        3
Fe      12.60000000       7.20000000       5.40000000      55.84500000      231        4
Cr      12.60000000       9.00000000       3.60000000      51.99610000      232        3
Cr      10.80000000       7.20000000       7.20000000      51.99610000      233        3
Fe      10.80000000       9.00000000       9.00000000      55.84500000      234        4
Fe      12.60000000       7.20000000       9.00000000      55.84500000      235        4
Fe      12.60000000       9.00000000       7.20000000      55.84500000      236        4
Cr      10.80000000       7.20000000      10.80000000      51.99610000      237        3
Mn      10.80000000       9.00000000      12.60000000      54.93804400      238        5
Ni      12.60000000       7.20000000      12.60000000      58.69340000      239        2
Co      12.60000000       9.00000000      10.80000000      58.93319400      240        1
Mn      10.80000000      10.80000000       0.00000000      54.93804400      241        5
Ni      10.80000000      12.60000000       1.80000000      58.69340000      242        2
Mn      12.60000000      10.80000000       1.80000000      54.93804400      243        5
Mn      12.60000000      12.60000000       0.00000000      54.93804400      244        5
Ni      10.80000000      10.80000000       3.60000000      58.69340000      245        2
Mn      10.80000000      12.60000000       5.40000000      54.93804400      246        5
Co      12.60000000      10.80000000       5.40000000      58.93319400      247        1
Mn      12.60000000      12.60000000       3.60000000      54.93804400      248        5
Cr      10.80000000      10.80000000       7.20000000      51.99610000      249        3
Mn      10.80000000      12.60000000       9.00000000      54.93804400      250        5
Co      12.60000000      10.80000000       9.00000000      58.93319400      251        1
Mn      12.60000000      12.60000000       7.20000000      54.93804400      252        5
Mn      10.80000000      10.80000000      10.80000000      54.93804400      253        5
Mn      10.80000000      12.60000000      12.60000000      54.93804400      254        5
Mn      12.60000000      10.80000000      12.60000000      54.93804400      255        5
Mn      12.60000000      12.60000000      10.80000000      54.93804400      256        5
