256
Lattice="14.4 0.0 0.0 0.0 14.4 0.0 0.0 0.0 14.4" Properties=species:S:1:pos:R:3:masses:R:1:id:I:1:type:I:1 comment="(written by ASE)" energy=-1021.90804900113 pbc="T T T"
Mn       0.00000000       0.00000000       0.00000000      54.93804400        1        5
Co       0.00000000       1.80000000       1.80000000      58.93319400        2        1
Ni       1.80000000       0.00000000       1.80000000      58.69340000        3        2
Co       1.80000000       1.80000000       0.00000000      58.93319400        4        1
Fe       0.00000000       0.00000000       3.60000000      55.84500000        5        4
Ni       0.00000000       1.80000000       5.40000000      58.69340000        6        2
Mn       1.80000000       0.00000000       5.40000000      54.93804400        7        5
Ni       1.80000000       1.80000000       3.60000000      58.69340000        8        2
Co       0.00000000       0.00000000       7.20000000      58.93319400        9        1
Co       0.00000000       1.80000000       9.00000000      58.93319400       10        1
Co       1.80000000       0.00000000       9.00000000      58.93319400       11        1
Ni       1.80000000       1.80000000       7.20000000      58.69340000       12        2
Cr       0.00000000       0.00000000      10.80000000      51.99610000       13        3
Cr       0.00000000       1.80000000      12.60000000      51.99610000       14        3
Co       1.80000000       0.00000000      12.60000000      58.93319400       15        1
Ni       1.80000000       1.80000000      10.80000000      58.69340000       16        2
Cr       0.00000000       3.60000000       0.00000000      51.99610000       17        3
Co       0.00000000       5.40000000       1.80000000      58.93319400       18        1
Co       1.80000000       3.60000000       1.80000000      58.93319400       19        1
Co       1.80000000       5.40000000       0.00000000      58.93319400       20        1
Co       0.00000000       3.60000000       3.60000000      58.93319400       21        1
Ni       0.00000000       5.40000000       5.40000000      58.69340000       22        2
Fe       1.80000000       3.60000000       5.40000000      55.84500000       23        4
Ni       1.80000000       5.40000000       3.60000000      58.69340000       24        2
Ni       0.00000000       3.60000000       7.20000000      58.69340000       25        2
Ni       0.00000000       5.40000000       9.00000000      58.69340000       26        2
Co       1.80000000       3.60000000       9.00000000      58.93319400       27        1
Fe       1.80000000       5.40000000       7.20000000      55.84500000       28        4
Ni       0.00000000       3.60000000      10.80000000      58.69340000       29        2
Co       0.00000000       5.40000000      12.60000000      58.93319400       30        1
Co       1.80000000       3.60000000      12.60000000      58.93319400       31        1
Co       1.80000000       5.40000000      10.80000000      58.93319400       32        1
Co       0.00000000       7.20000000       0.00000000      58.93319400       33        1
Co       0.00000000       9.00000000       1.80000000      58.93319400       34        1
Ni       1.80000000       7.20000000       1.80000000      58.69340000       35        2
Fe       1.80000000       9.00000000       0.00000000      55.84500000       36        4
Co       0.00000000       7.20000000       3.60000000      58.93319400       37        1
Fe       0.00000000       9.00000000       5.40000000      55.84500000       38        4
Fe       1.80000000       7.20000000       5.40000000      55.84500000       39        4
Fe       1.80000000       9.00000000       3.60000000      55.84500000       40        4
Fe       0.00000000       7.20000000       7.20000000      55.84500000       41        4
Fe       0.00000000       9.00000000       9.00000000      55.84500000       42        4
Fe       1.80000000       7.20000000       9.00000000      55.84500000       43        4
Fe       1.80000000       9.00000000       7.20000000      55.84500000       44        4
Fe       0.00000000       7.20000000      10.80000000      55.84500000       45        4
Fe       0.00000000       9.00000000      12.60000000      55.84500000       46        4
Ni       1.80000000       7.20000000      12.60000000      58.69340000       47        2
Fe       1.80000000       9.00000000      10.80000000      55.84500000       48        4
Ni       0.00000000      10.80000000       0.00000000      58.69340000       49        2
Ni       0.00000000      12.60000000       1.80000000      58.69340000       50        2
Fe       1.80000000      10.80000000       1.80000000      55.84500000       51        4
Fe       1.80000000      12.60000000       0.00000000      55.84500000       52        4
Fe       0.00000000      10.80000000       3.60000000      55.84500000       53        4
Fe       0.00000000      12.60000000       5.40000000      55.84500000       54        4
Fe       1.80000000      10.80000000       5.40000000      55.84500000       55        4
Fe       1.80000000      12.60000000       3.60000000      55.84500000       56        4
Fe       0.00000000      10.80000000       7.20000000      55.84500000       57        4
Cr       0.00000000      12.60000000       9.00000000      51.99610000       58        3
Cr       1.80000000      10.80000000       9.00000000      51.99610000       59        3
Mn       1.80000000      12.60000000       7.20000000      54.93804400       60        5
Fe       0.00000000      10.80000000      10.80000000      55.84500000       61        4
Mn       0.00000000      12.60000000      12.60000000      54.93804400       62        5
Fe       1.80000000      10.80000000      12.60000000      55.84500000       63        4
Cr       1.80000000      12.60000000      10.80000000      51.99610000       64        3
Ni       3.60000000       0.00000000       0.00000000      58.69340000       65        2
Co       3.60000000       1.80000000       1.80000000      58.93319400       66        1
Ni       5.40000000       0.00000000       1.80000000      58.69340000       67        2
Mn       5.40000000       1.80000000       0.00000000      54.93804400       68        5
Ni       3.60000000       0.00000000       3.60000000      58.69340000       69        2
Ni       3.60000000       1.80000000       5.40000000      58.69340000       70        2
Mn       5.40000000       0.00000000       5.40000000      54.93804400       71        5
Co       5.40000000       1.80000000       3.60000000      58.93319400       72        1
Mn       3.60000000       0.00000000       7.20000000      54.93804400       73        5
Co       3.60000000       1.80000000       9.00000000      58.93319400       74        1
Cr       5.40000000       0.00000000       9.00000000      51.99610000       75        3
Co       5.40000000       1.80000000       7.20000000      58.93319400       76        1
Co       3.60000000       0.00000000      10.80000000      58.93319400       77        1
Ni       3.60000000       1.80000000      12.60000000      58.69340000       78        2
Mn       5.40000000       0.00000000      12.60000000      54.93804400       79        5
Co       5.40000000       1.80000000      10.80000000      58.93319400       80        1
Co       3.60000000       3.60000000       0.00000000      58.93319400       81        1
Co       3.60000000       5.40000000       1.80000000      58.93319400       82        1
Ni       5.40000000       3.60000000       1.80000000      58.69340000       83        2
Co       5.40000000       5.40000000       0.00000000      58.93319400       84        1
Fe       3.60000000       3.60000000       3.60000000      55.84500000       85        4
Fe       3.60000000       5.40000000       5.40000000      55.84500000       86        4
Cr       5.40000000       3.60000000       5.40000000      51.99610000       87        3
Cr       5.40000000       5.40000000       3.60000000      51.99610000       88        3
Fe       3.60000000       3.60000000       7.20000000      55.84500000       89        4
Ni       3.60000000       5.40000000       9.00000000      58.69340000       90        2
Ni       5.40000000       3.60000000       9.00000000      58.69340000       91        2
Fe       5.40000000       5.40000000       7.20000000      55.84500000       92        4
Co       3.60000000       3.60000000      10.80000000      58.93319400       93        1
Ni       3.60000000       5.40000000      12.60000000      58.69340000       94        2
Co       5.40000000       3.60000000      12.60000000      58.93319400       95        1
Fe       5.40000000       5.40000000      10.80000000      55.84500000       96        4
Ni       3.60000000       7.20000000       0.00000000      58.69340000       97        2
Fe       3.60000000       9.00000000       1.80000000      55.84500000       98        4
Mn       5.40000000       7.20000000       1.80000000      54.93804400       99        5
Mn       5.40000000       9.00000000       0.00000000      54.93804400      100        5
Fe       3.60000000       7.20000000       3.60000000      55.84500000      101        4
Fe       3.60000000       9.00000000       5.40000000      55.84500000      102        4
Fe       5.40000000       7.20000000       5.40000000      55.84500000      103        4
Ni       5.40000000       9.00000000       3.60000000      58.69340000      104        2
Fe       3.60000000       7.20000000       7.20000000      55.84500000      105        4
Fe       3.60000000       9.00000000       9.00000000      55.84500000      106        4
Fe       5.40000000       7.20000000       9.00000000      55.84500000      107        4
Fe       5.40000000       9.00000000       7.20000000      55.84500000      108        4
Ni       3.60000000       7.20000000      10.80000000      58.69340000      109        2
Fe       3.60000000       9.00000000      12.60000000      55.84500000      110        4
Mn       5.40000000       7.20000000      12.60000000      54.93804400      111        5
Mn       5.40000000       9.00000000      10.80000000      54.93804400      112        5
Ni       3.60000000      10.80000000       0.00000000      58.69340000      113        2
Fe       3.60000000      12.60000000       1.80000000      55.84500000      114        4
Mn       5.40000000      10.80000000       1.80000000      54.93804400      115        5
Fe       5.40000000      12.60000000       0.00000000      55.84500000      116        4
Fe       3.60000000      10.80000000       3.60000000      55.84500000      117        4
Ni       3.60000000      12.60000000       5.40000000      58.69340000      118        2
Fe       5.40000000      10.80000000       5.40000000      55.84500000      119        4
Cr       5.40000000      12.60000000       3.60000000      51.99610000      120        3
Ni       3.60000000      10.80000000       7.20000000      58.69340000      121        2
Mn       3.60000000      12.60000000       9.00000000      54.93804400      122        5
Mn       5.40000000      10.80000000       9.00000000      54.93804400      123        5
Mn       5.40000000      12.60000000       7.20000000      54.93804400      124        5
Ni       3.60000000      10.80000000      10.80000000      58.69340000      125        2
Fe       3.60000000      12.60000000      12.60000000      55.84500000      126        4
Mn       5.40000000      10.80000000      12.60000000      54.93804400      127        5
Mn       5.40000000      12.60000000      10.80000000      54.93804400      128        5
Cr       7.20000000       0.00000000       0.00000000      51.99610000      129        3
Mn       7.20000000       1.80000000       1.80000000      54.93804400      130        5
Cr       9.00000000       0.00000000       1.80000000      51.99610000      131        3
Mn       9.00000000       1.80000000       0.00000000      54.93804400      132        5
Cr       7.20000000       0.00000000       3.60000000      51.99610000      133        3
Ni       7.20000000       1.80000000       5.40000000      58.69340000      134        2
Co       9.00000000       0.00000000       5.40000000      58.93319400      135        1
Co       9.00000000       1.80000000       3.60000000      58.93319400      136        1
Mn       7.20000000       0.00000000       7.20000000      54.93804400      137        5
Cr       7.20000000       1.80000000       9.00000000      51.99610000      138        3
Mn       9.00000000       0.00000000       9.00000000      54.93804400      139        5
Cr       9.00000000       1.80000000       7.20000000      51.99610000      140        3
Mn       7.20000000       0.00000000      10.80000000      54.93804400      141        5
Mn       7.20000000       1.80000000      12.60000000      54.93804400      142        5
Cr       9.00000000       0.00000000      12.60000000      51.99610000      143        3
Mn       9.00000000       1.80000000      10.80000000      54.93804400      144        5
Mn       7.20000000       3.60000000       0.00000000      54.93804400      145        5
Cr       7.20000000       5.40000000       1.80000000      51.99610000      146        3
Cr       9.00000000       3.60000000       1.80000000      51.99610000      147        3
Cr       9.00000000       5.40000000       0.00000000      51.99610000      148        3
Co       7.20000000       3.60000000       3.60000000      58.93319400      149        1
Cr       7.20000000       5.40000000       5.40000000      51.99610000      150        3
Co       9.00000000       3.60000000       5.40000000      58.93319400      151        1
Cr       9.00000000       5.40000000       3.60000000      51.99610000      152        3
Co       7.20000000       3.60000000       7.20000000      58.93319400      153        1
Fe       7.20000000       5.40000000       9.00000000      55.84500000      154        4
Co       9.00000000       3.60000000       9.00000000      58.93319400      155        1
Co       9.00000000       5.40000000       7.20000000      58.93319400      156        1
Ni       7.20000000       3.60000000      10.80000000      58.69340000      157        2
Cr       7.20000000       5.40000000      12.60000000      51.99610000      158        3
Mn       9.00000000       3.60000000      12.60000000      54.93804400      159        5
Co       9.00000000       5.40000000      10.80000000      58.93319400      160        1
Cr       7.20000000       7.20000000       0.00000000      51.99610000      161        3
Mn       7.20000000       9.00000000       1.80000000      54.93804400      162        5
Mn       9.00000000       7.20000000       1.80000000      54.93804400      163        5
Cr       9.00000000       9.00000000       0.00000000      51.99610000      164        3
Cr       7.20000000       7.20000000       3.60000000      51.99610000      165        3
Ni       7.20000000       9.00000000       5.40000000      58.69340000      166        2
Mn       9.00000000       7.20000000       5.40000000      54.93804400      167        5
Mn       9.00000000       9.00000000       3.60000000      54.93804400      168        5
Fe       7.20000000       7.20000000       7.20000000      55.84500000      169        4
Ni       7.20000000       9.00000000       9.00000000      58.69340000      170        2
Fe       9.00000000       7.20000000       9.00000000      55.84500000      171        4
Ni       9.00000000       9.00000000       7.20000000      58.69340000      172        2
Ni       7.20000000       7.20000000      10.80000000      58.69340000      173        2
Mn       7.20000000       9.00000000      12.60000000      54.93804400      174        5
Cr       9.00000000       7.20000000      12.60000000      51.99610000      175        3
Mn       9.00000000       9.00000000      10.80000000      54.93804400      176        5
Cr       7.20000000      10.80000000       0.00000000      51.99610000      177        3
Mn       7.20000000      12.60000000       1.80000000      54.93804400      178        5
Mn       9.00000000      10.80000000       1.80000000      54.93804400      179        5
Cr       9.00000000      12.60000000       0.00000000      51.99610000      180        3
Mn       7.20000000      10.80000000       3.60000000      54.93804400      181        5
Ni       7.20000000      12.60000000       5.40000000      58.69340000      182        2
Cr       9.00000000      10.80000000       5.40000000      51.99610000      183        3
Cr       9.00000000      12.60000000       3.60000000      51.99610000      184        3
Mn       7.20000000      10.80000000       7.20000000      54.93804400      185        5
Mn       7.20000000      12.60000000       9.00000000      54.93804400      186        5
Mn       9.00000000      10.80000000       9.00000000      54.93804400      187        5
Mn       9.00000000      12.60000000       7.20000000      54.93804400      188        5
Mn       7.20000000      10.80000000      10.80000000      54.93804400      189        5
Mn       7.20000000      12.60000000      12.60000000      54.93804400      190        5
Cr       9.00000000      10.80000000      12.60000000      51.99610000      191        3
Mn       9.00000000      12.60000000      10.80000000      54.93804400      192        5
Cr      10.80000000       0.00000000       0.00000000      51.99610000      193        3
Cr      10.80000000       1.80000000       1.80000000      51.99610000      194        3
Mn      12.60000000       0.00000000       1.80000000      54.93804400      195        5
Cr      12.60000000       1.80000000       0.00000000      51.99610000      196        3
Co      10.80000000       0.00000000       3.60000000      58.93319400      197        1
Co      10.80000000       1.80000000       5.40000000      58.93319400      198        1
Co      12.60000000       0.00000000       5.40000000      58.93319400      199        1
Ni      12.60000000       1.80000000       3.60000000      58.69340000      200        2
Cr      10.80000000       0.00000000       7.20000000      51.99610000      201        3
Cr      10.80000000       1.80000000       9.00000000      51.99610000      202        3
Cr      12.60000000       0.00000000       9.00000000      51.99610000      203        3
Co      12.60000000       1.80000000       7.20000000      58.93319400      204        1
Mn      10.80000000       0.00000000      10.80000000      54.93804400      205        5
Mn      10.80000000       1.80000000      12.60000000      54.93804400      206        5
Mn      12.60000000       0.00000000      12.60000000      54.93804400      207        5
Cr      12.60000000       1.80000000      10.80000000      51.99610000      208        3
Cr      10.80000000       3.60000000       0.00000000      51.99610000      209        3
Cr      10.80000000       5.40000000       1.80000000      51.99610000      210        3
Co      12.60000000       3.60000000       1.80000000      58.93319400      211        1
Co      12.60000000       5.40000000       0.00000000      58.93319400      212        1
Co      10.80000000       3.60000000       3.60000000      58.93319400      213        1
Cr      10.80000000       5.40000000       5.40000000      51.99610000      214        3
Co      12.60000000       3.60000000       5.40000000      58.93319400      215        1
Ni      12.60000000       5.40000000       3.60000000      58.69340000      216        2
Ni      10.80000000       3.60000000       7.20000000      58.69340000      217        2
Ni      10.80000000       5.40000000       9.00000000      58.69340000      218        2
Co      12.60000000       3.60000000       9.00000000      58.93319400      219        1
Co      12.60000000       5.40000000       7.20000000      58.93319400      220        1
Cr      10.80000000       3.60000000      10.80000000      51.99610000      221        3
Mn      10.80000000       5.40000000      12.60000000      54.93804400      222        5
Cr      12.60000000       3.60000000      12.60000000      51.99610000      223        3
Mn      12.60000000       5.40000000      10.80000000      54.93804400      224        5
Mn      10.80000000       7.20000000       0.00000000      54.93804400      225        5
Mn      10.80000000       9.00000000       1.80000000      54.93804400      226        5
Cr      12.60000000       7.20000000       1.80000000      51.99610000      227        3
Cr      12.60000000       9.00000000       0.00000000      51.99610000      228        3
Mn      10.80000000       7.20000000       3.60000000      54.93804400      229        5
Fe      10.80000000       9.00000000       5.40000000      55.84500000      230        4
Ni      12.60000000       7.20000000       5.40000000      58.69340000      231        2
Co      12.60000000       9.00000000       3.60000000      58.93319400      232        1
Fe      10.80000000       7.20000000       7.20000000      55.84500000      233        4
Fe      10.80000000       9.00000000       9.00000000      55.84500000      234        4
Fe      12.60000000       7.20000000       9.00000000      55.84500000      235        4
Fe      12.60000000       9.00000000       7.20000000      55.84500000      236        4
Mn      10.80000000       7.20000000      10.80000000      54.93804400      237        5
Mn      10.80000000       9.00000000      12.60000000      54.93804400      238        5
Ni      12.60000000       7.20000000      12.60000000      58.69340000      239        2
Fe      12.60000000       9.00000000      10.80000000      55.84500000      240        4
Mn      10.80000000      10.80000000       0.00000000      54.93804400      241        5
Cr      10.80000000      12.60000000       1.80000000      51.99610000      242        3
Mn      12.60000000      10.80000000       1.80000000      54.93804400      243        5
Mn      12.60000000      12.60000000       0.00000000      54.93804400      244        5
Mn      10.80000000      10.80000000       3.60000000      54.93804400      245        5
Co      10.80000000      12.60000000       5.40000000      58.93319400      246        1
Ni      12.60000000      10.80000000       5.40000000      58.69340000      247        2
Ni      12.60000000      12.60000000       3.60000000      58.69340000      248        2
Fe      10.80000000      10.80000000       7.20000000      55.84500000      249        4
Mn      10.80000000      12.60000000       9.00000000      54.93804400      250        5
Fe      12.60000000      10.80000000       9.00000000      55.84500000      251        4
Co      12.60000000      12.60000000       7.20000000      58.93319400      252        1
Cr      10.80000000      10.80000000      10.80000000      51.99610000      253        3
Mn      10.80000000      12.60000000      12.60000000      54.93804400      254        5
Ni      12.60000000      10.80000000      12.60000000      58.69340000      255        2
Mn      12.60000000      12.60000000      10.80000000      54.93804400      256        5
