256
Lattice="14.4 0.0 0.0 0.0 14.4 0.0 0.0 0.0 14.4" Properties=species:S:1:pos:R:3:masses:R:1:id:I:1:type:I:1 comment="(written by ASE)" energy=-1018.03291000725 pbc="T T T"
Cr       0.00000000       0.00000000       0.00000000      51.99610000        1        3
Fe       0.00000000       1.80000000       1.80000000      55.84500000        2        4
Cr       1.80000000       0.00000000       1.80000000      51.99610000        3        3
Co       1.80000000       1.80000000       0.00000000      58.93319400        4        1
Ni       0.00000000       0.00000000       3.60000000      58.69340000        5        2
Mn       0.00000000       1.80000000       5.40000000      54.93804400        6        5
Cr       1.80000000       0.00000000       5.40000000      51.99610000        7        3
Co       1.80000000       1.80000000       3.60000000      58.93319400        8        1
Ni       0.00000000       0.00000000       7.20000000      58.69340000        9        2
Co       0.00000000       1.80000000       9.00000000      58.93319400       10        1
Cr       1.80000000       0.00000000       9.00000000      51.99610000       11        3
Co       1.80000000       1.80000000       7.20000000      58.93319400       12        1
Cr       0.00000000       0.00000000      10.80000000      51.99610000       13        3
Fe       0.00000000       1.80000000      12.60000000      55.84500000       14        4
Cr       1.80000000       0.00000000      12.60000000      51.99610000       15        3
Co       1.80000000       1.80000000      10.80000000      58.93319400       16        1
Fe       0.00000000       3.60000000       0.00000000      55.84500000       17        4
Fe       0.00000000       5.40000000       1.80000000      55.84500000       18        4
Cr       1.80000000       3.60000000       1.80000000      51.99610000       19        3
Co       1.80000000       5.40000000       0.00000000      58.93319400       20        1
Fe       0.00000000       3.60000000       3.60000000      55.84500000       21        4
Co       0.00000000       5.40000000       5.40000000      58.93319400       22        1
Cr       1.80000000       3.60000000       5.40000000      51.99610000       23        3
Co       1.80000000       5.40000000       3.60000000      58.93319400       24        1
Fe       0.00000000       3.60000000       7.20000000      55.84500000       25        4
Co       0.00000000       5.40000000       9.00000000      58.93319400       26        1
Cr       1.80000000       3.60000000       9.00000000      51.99610000       27        3
Co       1.80000000       5.40000000       7.20000000      58.93319400       28        1
Fe       0.00000000       3.60000000      10.80000000      55.84500000       29        4
Fe       0.00000000       5.40000000      12.60000000      55.84500000       30        4
Fe       1.80000000       3.60000000      12.60000000      55.84500000       31        4
Fe       1.80000000       5.40000000      10.80000000      55.84500000       32        4
Fe       0.00000000       7.20000000       0.00000000      55.84500000       33        4
Co       0.00000000       9.00000000       1.80000000      58.93319400       34        1
Co       1.80000000       7.20000000       1.80000000      58.93319400       35        1
Cr       1.80000000       9.00000000       0.00000000      51.99610000       36        3
Cr       0.00000000       7.20000000       3.60000000      51.99610000       37        3
Co       0.00000000       9.00000000       5.40000000      58.93319400       38        1
Co       1.80000000       7.20000000       5.40000000      58.93319400       39        1
Cr       1.80000000       9.00000000       3.60000000      51.99610000       40        3
Cr       0.00000000       7.20000000       7.20000000      51.99610000       41        3
Co       0.00000000       9.00000000       9.00000000      58.93319400       42        1
Fe       1.80000000       7.20000000       9.00000000      55.84500000       43        4
Cr       1.80000000       9.00000000       7.20000000      51.99610000       44        3
Fe       0.00000000       7.20000000      10.80000000      55.84500000       45        4
Co       0.00000000       9.00000000      12.60000000      58.93319400       46        1
Cr       1.80000000       7.20000000      12.60000000      51.99610000       47        3
Cr       1.80000000       9.00000000      10.80000000      51.99610000       48        3
Ni       0.00000000      10.80000000       0.00000000      58.69340000       49        2
Ni       0.00000000      12.60000000       1.80000000      58.69340000       50        2
Ni       1.80000000      10.80000000       1.80000000      58.69340000       51        2
Ni       1.80000000      12.60000000       0.00000000      58.69340000       52        2
Ni       0.00000000      10.80000000       3.60000000      58.69340000       53        2
Ni       0.00000000      12.60000000       5.40000000      58.69340000       54        2
Ni       1.80000000      10.80000000       5.40000000      58.69340000       55        2
Ni       1.80000000      12.60000000       3.60000000      58.69340000       56        2
Cr       0.00000000      10.80000000       7.20000000      51.99610000       57        3
Ni       0.00000000      12.60000000       9.00000000      58.69340000       58        2
Ni       1.80000000      10.80000000       9.00000000      58.69340000       59        2
Ni       1.80000000      12.60000000       7.20000000      58.69340000       60        2
Ni       0.00000000      10.80000000      10.80000000      58.69340000       61        2
Ni       0.00000000      12.60000000      12.60000000      58.69340000       62        2
Ni       1.80000000      10.80000000      12.60000000      58.69340000       63        2
Cr       1.80000000      12.60000000      10.80000000      51.99610000       64        3
Fe       3.60000000       0.00000000       0.00000000      55.84500000       65        4
Co       3.60000000       1.80000000       1.80000000      58.93319400       66        1
Mn       5.40000000       0.00000000       1.80000000      54.93804400       67        5
Mn       5.40000000       1.80000000       0.00000000      54.93804400       68        5
Cr       3.60000000       0.00000000       3.60000000      51.99610000       69        3
Co       3.60000000       1.80000000       5.40000000      58.93319400       70        1
Co       5.40000000       0.00000000       5.40000000      58.93319400       71        1
Ni       5.40000000       1.80000000       3.60000000      58.69340000       72        2
Cr       3.60000000       0.00000000       7.20000000      51.99610000       73        3
Fe       3.60000000       1.80000000       9.00000000      55.84500000       74        4
Fe       5.40000000       0.00000000       9.00000000      55.84500000       75        4
Mn       5.40000000       1.80000000       7.20000000      54.93804400       76        5
Co       3.60000000       0.00000000      10.80000000      58.93319400       77        1
Fe       3.60000000       1.80000000      12.60000000      55.84500000       78        4
Fe       5.40000000       0.00000000      12.60000000      55.84500000       79        4
Mn       5.40000000       1.80000000      10.80000000      54.93804400       80        5
Co       3.60000000       3.60000000       0.00000000      58.93319400       81        1
Cr       3.60000000       5.40000000       1.80000000      51.99610000       82        3
Ni       5.40000000       3.60000000       1.80000000      58.69340000       83        2
Mn       5.40000000       5.40000000       0.00000000      54.93804400       84        5
Ni       3.60000000       3.60000000       3.60000000      58.69340000       85        2
Cr       3.60000000       5.40000000       5.40000000      51.99610000       86        3
Cr       5.40000000       3.60000000       5.40000000      51.99610000       87        3
Ni       5.40000000       5.40000000       3.60000000      58.69340000       88        2
Fe       3.60000000       3.60000000       7.20000000      55.84500000       89        4
Fe       3.60000000       5.40000000       9.00000000      55.84500000       90        4
Mn       5.40000000       3.60000000       9.00000000      54.93804400       91        5
Co       5.40000000       5.40000000       7.20000000      58.93319400       92        1
Fe       3.60000000       3.60000000      10.80000000      55.84500000       93        4
Co       3.60000000       5.40000000      12.60000000      58.93319400       94        1
Fe       5.40000000       3.60000000      12.60000000      55.84500000       95        4
Fe       5.40000000       5.40000000      10.80000000      55.84500000       96        4
Ni       3.60000000       7.20000000       0.00000000      58.69340000       97        2
Ni       3.60000000       9.00000000       1.80000000      58.69340000       98        2
Ni       5.40000000       7.20000000       1.80000000      58.69340000       99        2
Ni       5.40000000       9.00000000       0.00000000      58.69340000      100        2
Cr       3.60000000       7.20000000       3.60000000      51.99610000      101        3
Cr       3.60000000       9.00000000       5.40000000      51.99610000      102        3
Ni       5.40000000       7.20000000       5.40000000      58.69340000      103        2
Ni       5.40000000       9.00000000       3.60000000      58.69340000      104        2
Cr       3.60000000       7.20000000       7.20000000      51.99610000      105        3
Fe       3.60000000       9.00000000       9.00000000      55.84500000      106        4
Fe       5.40000000       7.20000000       9.00000000      55.84500000      107        4
Co       5.40000000       9.00000000       7.20000000      58.93319400      108        1
Co       3.60000000       7.20000000      10.80000000      58.93319400      109        1
Ni       3.60000000       9.00000000      12.60000000      58.69340000      110        2
Cr       5.40000000       7.20000000      12.60000000      51.99610000      111        3
Cr       5.40000000       9.00000000      10.80000000      51.99610000      112        3
Ni       3.60000000      10.80000000       0.00000000      58.69340000      113        2
Co       3.60000000      12.60000000       1.80000000      58.93319400      114        1
Cr       5.40000000      10.80000000       1.80000000      51.99610000      115        3
Cr       5.40000000      12.60000000       0.00000000      51.99610000      116        3
Ni       3.60000000      10.80000000       3.60000000      58.69340000      117        2
Ni       3.60000000      12.60000000       5.40000000      58.69340000      118        2
Co       5.40000000      10.80000000       5.40000000      58.93319400      119        1
Cr       5.40000000      12.60000000       3.60000000      51.99610000      120        3
Ni       3.60000000      10.80000000       7.20000000      58.69340000      121        2
Ni       3.60000000      12.60000000       9.00000000      58.69340000      122        2
Cr       5.40000000      10.80000000       9.00000000      51.99610000      123        3
Mn       5.40000000      12.60000000       7.20000000      54.93804400      124        5
Ni       3.60000000      10.80000000      10.80000000      58.69340000      125        2
Mn       3.60000000      12.60000000      12.60000000      54.93804400      126        5
Ni       5.40000000      10.80000000      12.60000000      58.69340000      127        2
Cr       5.40000000      12.60000000      10.80000000      51.99610000      128        3
Mn       7.20000000       0.00000000       0.00000000      54.93804400      129        5
Mn       7.20000000       1.80000000       1.80000000      54.93804400      130        5
Mn       9.00000000       0.00000000       1.80000000      54.93804400      131        5
Mn       9.00000000       1.80000000       0.00000000      54.93804400      132        5
Mn       7.20000000       0.00000000       3.60000000      54.93804400      133        5
Mn       7.20000000       1.80000000       5.40000000      54.93804400      134        5
Fe       9.00000000       0.00000000       5.40000000      55.84500000      135        4
Mn       9.00000000       1.80000000       3.60000000      54.93804400      136        5
Fe       7.20000000       0.00000000       7.20000000      55.84500000      137        4
Fe       7.20000000       1.80000000       9.00000000      55.84500000      138        4
Mn       9.00000000       0.00000000       9.00000000      54.93804400      139        5
Mn       9.00000000       1.80000000       7.20000000      54.93804400      140        5
Mn       7.20000000       0.00000000      10.80000000      54.93804400      141        5
Mn       7.20000000       1.80000000      12.60000000      54.93804400      142        5
Fe       9.00000000       0.00000000      12.60000000      55.84500000      143        4
Mn       9.00000000       1.80000000      10.80000000      54.93804400      144        5
Mn       7.20000000       3.60000000       0.00000000      54.93804400      145        5
Ni       7.20000000       5.40000000       1.80000000      58.69340000      146        2
Mn       9.00000000       3.60000000       1.80000000      54.93804400      147        5
Mn       9.00000000       5.40000000       0.00000000      54.93804400      148        5
Mn       7.20000000       3.60000000       3.60000000      54.93804400      149        5
Mn       7.20000000       5.40000000       5.40000000      54.93804400      150        5
Mn       9.00000000       3.60000000       5.40000000      54.93804400      151        5
Cr       9.00000000       5.40000000       3.60000000      51.99610000      152        3
Mn       7.20000000       3.60000000       7.20000000      54.93804400      153        5
Mn       7.20000000       5.40000000       9.00000000      54.93804400      154        5
Mn       9.00000000       3.60000000       9.00000000      54.93804400      155        5
Mn       9.00000000       5.40000000       7.20000000      54.93804400      156        5
Mn       7.20000000       3.60000000      10.80000000      54.93804400      157        5
Mn       7.20000000       5.40000000      12.60000000      54.93804400      158        5
Mn       9.00000000       3.60000000      12.60000000      54.93804400      159        5
Mn       9.00000000       5.40000000      10.80000000      54.93804400      160        5
Ni       7.20000000       7.20000000       0.00000000      58.69340000      161        2
Cr       7.20000000       9.00000000       1.80000000      51.99610000      162        3
Cr       9.00000000       7.20000000       1.80000000      51.99610000      163        3
Co       9.00000000       9.00000000       0.00000000      58.93319400      164        1
Ni       7.20000000       7.20000000       3.60000000      58.69340000      165        2
Cr       7.20000000       9.00000000       5.40000000      51.99610000      166        3
Fe       9.00000000       7.20000000       5.40000000      55.84500000      167        4
Co       9.00000000       9.00000000       3.60000000      58.93319400      168        1
Co       7.20000000       7.20000000       7.20000000      58.93319400      169        1
Co       7.20000000       9.00000000       9.00000000      58.93319400      170        1
Fe       9.00000000       7.20000000       9.00000000      55.84500000      171        4
Co       9.00000000       9.00000000       7.20000000      58.93319400      172        1
Co       7.20000000       7.20000000      10.80000000      58.93319400      173        1
Cr       7.20000000       9.00000000      12.60000000      51.99610000      174        3
Fe       9.00000000       7.20000000      12.60000000      55.84500000      175        4
Mn       9.00000000       9.00000000      10.80000000      54.93804400      176        5
Co       7.20000000      10.80000000       0.00000000      58.93319400      177        1
Co       7.20000000      12.60000000       1.80000000      58.93319400      178        1
Cr       9.00000000      10.80000000       1.80000000      51.99610000      179        3
Fe       9.00000000      12.60000000       0.00000000      55.84500000      180        4
Fe       7.20000000      10.80000000       3.60000000      55.84500000      181        4
Co       7.20000000      12.60000000       5.40000000      58.93319400      182        1
Fe       9.00000000      10.80000000       5.40000000      55.84500000      183        4
Fe       9.00000000      12.60000000       3.60000000      55.84500000      184        4
Cr       7.20000000      10.80000000       7.20000000      51.99610000      185        3
Co       7.20000000      12.60000000       9.00000000      58.93319400      186        1
Mn       9.00000000      10.80000000       9.00000000      54.93804400      187        5
Co       9.00000000      12.60000000       7.20000000      58.93319400      188        1
Fe       7.20000000      10.80000000      10.80000000      55.84500000      189        4
Co       7.20000000      12.60000000      12.60000000      58.93319400      190        1
Fe       9.00000000      10.80000000      12.60000000      55.84500000      191        4
Mn       9.00000000      12.60000000      10.80000000      54.93804400      192        5
Mn      10.80000000       0.00000000       0.00000000      54.93804400      193        5
Mn      10.80000000       1.80000000       1.80000000      54.93804400      194        5
Cr      12.60000000       0.00000000       1.80000000      51.99610000      195        3
Co      12.60000000       1.80000000       0.00000000      58.93319400      196        1
Co      10.80000000       0.00000000       3.60000000      58.93319400      197        1
Fe      10.80000000       1.80000000       5.40000000      55.84500000      198        4
Ni      12.60000000       0.00000000       5.40000000      58.69340000      199        2
Mn      12.60000000       1.80000000       3.60000000      54.93804400      200        5
Cr      10.80000000       0.00000000       7.20000000      51.99610000      201        3
Co      10.80000000       1.80000000       9.00000000      58.93319400      202        1
Ni      12.60000000       0.00000000       9.00000000      58.69340000      203        2
Cr      12.60000000       1.80000000       7.20000000      51.99610000      204        3
Mn      10.80000000       0.00000000      10.80000000      54.93804400      205        5
Mn      10.80000000       1.80000000      12.60000000      54.93804400      206        5
Mn      12.60000000       0.00000000      12.60000000      54.93804400      207        5
Mn      12.60000000       1.80000000      10.80000000      54.93804400      208        5
Mn      10.80000000       3.60000000       0.00000000      54.93804400      209        5
Mn      10.80000000       5.40000000       1.80000000      54.93804400      210        5
Mn      12.60000000       3.60000000       1.80000000      54.93804400      211        5
Mn      12.60000000       5.40000000       0.00000000      54.93804400      212        5
Mn      10.80000000       3.60000000       3.60000000      54.93804400      213        5
Fe      10.80000000       5.40000000       5.40000000      55.84500000      214        4
Fe      12.60000000       3.60000000       5.40000000      55.84500000      215        4
Co      12.60000000       5.40000000       3.60000000      58.93319400      216        1
Co      10.80000000       3.60000000       7.20000000      58.93319400      217        1
Mn      10.80000000       5.40000000       9.00000000      54.93804400      218        5
Fe      12.60000000       3.60000000       9.00000000      55.84500000      219        4
Fe      12.60000000       5.40000000       7.20000000      55.84500000      220        4
Mn      10.80000000       3.60000000      10.80000000      54.93804400      221        5
Mn      10.80000000       5.40000000      12.60000000      54.93804400      222        5
Fe      12.60000000       3.60000000      12.60000000      55.84500000      223        4
Fe      12.60000000       5.40000000      10.80000000      55.84500000      224        4
Fe      10.80000000       7.20000000       0.00000000      55.84500000      225        4
Fe      10.80000000       9.00000000       1.80000000      55.84500000      226        4
Fe      12.60000000       7.20000000       1.80000000      55.84500000      227        4
Co      12.60000000       9.00000000       0.00000000      58.93319400      228        1
Fe      10.80000000       7.20000000       3.60000000      55.84500000      229        4
Fe      10.80000000       9.00000000       5.40000000      55.84500000      230        4
Fe      12.60000000       7.20000000       5.40000000      55.84500000      231        4
Mn      12.60000000       9.00000000       3.60000000      54.93804400      232        5
Fe      10.80000000       7.20000000       7.20000000      55.84500000      233        4
Mn      10.80000000       9.00000000       9.00000000      54.93804400      234        5
Co      12.60000000       7.20000000       9.00000000      58.93319400      235        1
Co      12.60000000       9.00000000       7.20000000      58.93319400      236        1
Mn      10.80000000       7.20000000      10.80000000      54.93804400      237        5
Mn      10.80000000       9.00000000      12.60000000      54.93804400      238        5
Fe      12.60000000       7.20000000      12.60000000      55.84500000      239        4
Mn      12.60000000       9.00000000      10.80000000      54.93804400      240        5
Co      10.80000000      10.80000000       0.00000000      58.93319400      241        1
Cr      10.80000000      12.60000000       1.80000000      51.99610000      242        3
Cr      12.60000000      10.80000000       1.80000000      51.99610000      243        3
Ni      12.60000000      12.60000000       0.00000000      58.69340000      244        2
Co      10.80000000      10.80000000       3.60000000      58.93319400      245        1
Cr      10.80000000      12.60000000       5.40000000      51.99610000      246        3
Mn      12.60000000      10.80000000       5.40000000      54.93804400      247        5
Ni      12.60000000      12.60000000       3.60000000      58.69340000      248        2
Mn      10.80000000      10.80000000       7.20000000      54.93804400      249        5
Ni      10.80000000      12.60000000       9.00000000      58.69340000      250        2
Ni      12.60000000      10.80000000       9.00000000      58.69340000      251        2
Ni      12.60000000      12.60000000       7.20000000      58.69340000      252        2
Ni      10.80000000      10.80000000      10.80000000      58.69340000      253        2
Mn      10.80000000      12.60000000      12.60000000      54.93804400      254        5
Cr      12.60000000      10.80000000      12.60000000      51.99610000      255        3
Ni      12.60000000      12.60000000      10.80000000      58.69340000      256        2
