256
Lattice="14.4 0.0 0.0 0.0 14.4 0.0 0.0 0.0 14.4" Properties=species:S:1:pos:R:3:masses:R:1:id:I:1:type:I:1 comment="(written by ASE)" energy=-1029.16572235821 pbc="T T T"
Mn       0.00000000       0.00000000       0.00000000      54.93804400        1        5
Ni       0.00000000       1.80000000       1.80000000      58.69340000        2        2
Mn       1.80000000       0.00000000       1.80000000      54.93804400        3        5
Ni       1.80000000       1.80000000       0.00000000      58.69340000        4        2
Ni       0.00000000       0.00000000       3.60000000      58.69340000        5        2
Mn       0.00000000       1.80000000       5.40000000      54.93804400        6        5
Co       1.80000000       0.00000000       5.40000000      58.93319400        7        1
Mn       1.80000000       1.80000000       3.60000000      54.93804400        8        5
Fe       0.00000000       0.00000000       7.20000000      55.84500000        9        4
Ni       0.00000000       1.80000000       9.00000000      58.69340000       10        2
Co       1.80000000       0.00000000       9.00000000      58.93319400       11        1
Mn       1.80000000       1.80000000       7.20000000      54.93804400       12        5
Cr       0.00000000       0.00000000      10.80000000      51.99610000       13        3
Ni       0.00000000       1.80000000      12.60000000      58.69340000       14        2
Cr       1.80000000       0.00000000      12.60000000      51.99610000       15        3
Mn       1.80000000       1.80000000      10.80000000      54.93804400       16        5
Mn       0.00000000       3.60000000       0.00000000      54.93804400       17        5
Mn       0.00000000       5.40000000       1.80000000      54.93804400       18        5
Mn       1.80000000       3.60000000       1.80000000      54.93804400       19        5
Ni       1.80000000       5.40000000       0.00000000      58.69340000       20        2
Ni       0.00000000       3.60000000       3.60000000      58.69340000       21        2
Mn       0.00000000       5.40000000       5.40000000      54.93804400       22        5
Fe       1.80000000       3.60000000       5.40000000      55.84500000       23        4
Ni       1.80000000       5.40000000       3.60000000      58.69340000       24        2
Ni       0.00000000       3.60000000       7.20000000      58.69340000       25        2
Mn       0.00000000       5.40000000       9.00000000      54.93804400       26        5
Mn       1.80000000       3.60000000       9.00000000      54.93804400       27        5
Cr       1.80000000       5.40000000       7.20000000      51.99610000       28        3
Cr       0.00000000       3.60000000      10.80000000      51.99610000       29        3
Mn       0.00000000       5.40000000      12.60000000      54.93804400       30        5
Mn       1.80000000       3.60000000      12.60000000      54.93804400       31        5
Ni       1.80000000       5.40000000      10.80000000      58.69340000       32        2
Co       0.00000000       7.20000000       0.00000000      58.93319400       33        1
Co       0.00000000       9.00000000       1.80000000      58.93319400       34        1
Mn       1.80000000       7.20000000       1.80000000      54.93804400       35        5
Ni       1.80000000       9.00000000       0.00000000      58.69340000       36        2
Co       0.00000000       7.20000000       3.60000000      58.93319400       37        1
Co       0.00000000       9.00000000       5.40000000      58.93319400       38        1
Fe       1.80000000       7.20000000       5.40000000      55.84500000       39        4
Co       1.80000000       9.00000000       3.60000000      58.93319400       40        1
Fe       0.00000000       7.20000000       7.20000000      55.84500000       41        4
Mn       0.00000000       9.00000000       9.00000000      54.93804400       42        5
Co       1.80000000       7.20000000       9.00000000      58.93319400       43        1
Co       1.80000000       9.00000000       7.20000000      58.93319400       44        1
Ni       0.00000000       7.20000000      10.80000000      58.69340000       45        2
Mn       0.00000000       9.00000000      12.60000000      54.93804400       46        5
Mn       1.80000000       7.20000000      12.60000000      54.93804400       47        5
Ni       1.80000000       9.00000000      10.80000000      58.69340000       48        2
Mn       0.00000000      10.80000000       0.00000000      54.93804400       49        5
Ni       0.00000000      12.60000000       1.80000000      58.69340000       50        2
Mn       1.80000000      10.80000000       1.80000000      54.93804400       51        5
Ni       1.80000000      12.60000000       0.00000000      58.69340000       52        2
Fe       0.00000000      10.80000000       3.60000000      55.84500000       53        4
Mn       0.00000000      12.60000000       5.40000000      54.93804400       54        5
Fe       1.80000000      10.80000000       5.40000000      55.84500000       55        4
Cr       1.80000000      12.60000000       3.60000000      51.99610000       56        3
Fe       0.00000000      10.80000000       7.20000000      55.84500000       57        4
Mn       0.00000000      12.60000000       9.00000000      54.93804400       58        5
Co       1.80000000      10.80000000       9.00000000      58.93319400       59        1
Co       1.80000000      12.60000000       7.20000000      58.93319400       60        1
Cr       0.00000000      10.80000000      10.80000000      51.99610000       61        3
Cr       0.00000000      12.60000000      12.60000000      51.99610000       62        3
Cr       1.80000000      10.80000000      12.60000000      51.99610000       63        3
Fe       1.80000000      12.60000000      10.80000000      55.84500000       64        4
Fe       3.60000000       0.00000000       0.00000000      55.84500000       65        4
Co       3.60000000       1.80000000       1.80000000      58.93319400       66        1
Co       5.40000000       0.00000000       1.80000000      58.93319400       67        1
Co       5.40000000       1.80000000       0.00000000      58.93319400       68        1
Fe       3.60000000       0.00000000       3.60000000      55.84500000       69        4
Co       3.60000000       1.80000000       5.40000000      58.93319400       70        1
Fe       5.40000000       0.00000000       5.40000000      55.84500000       71        4
Fe       5.40000000       1.80000000       3.60000000      55.84500000       72        4
Fe       3.60000000       0.00000000       7.20000000      55.84500000       73        4
Ni       3.60000000       1.80000000       9.00000000      58.69340000       74        2
Ni       5.40000000       0.00000000       9.00000000      58.69340000       75        2
Mn       5.40000000       1.80000000       7.20000000      54.93804400       76        5
Cr       3.60000000       0.00000000      10.80000000      51.99610000       77        3
Fe       3.60000000       1.80000000      12.60000000      55.84500000       78        4
Ni       5.40000000       0.00000000      12.60000000      58.69340000       79        2
Cr       5.40000000       1.80000000      10.80000000      51.99610000       80        3
Mn       3.60000000       3.60000000       0.00000000      54.93804400       81        5
Ni       3.60000000       5.40000000       1.80000000      58.69340000       82        2
Fe       5.40000000       3.60000000       1.80000000      55.84500000       83        4
Ni       5.40000000       5.40000000       0.00000000      58.69340000       84        2
Co       3.60000000       3.60000000       3.60000000      58.93319400       85        1
Mn       3.60000000       5.40000000       5.40000000      54.93804400       86        5
Fe       5.40000000       3.60000000       5.40000000      55.84500000       87        4
Cr       5.40000000       5.40000000       3.60000000      51.99610000       88        3
Co       3.60000000       3.60000000       7.20000000      58.93319400       89        1
Fe       3.60000000       5.40000000       9.00000000      55.84500000       90        4
Cr       5.40000000       3.60000000       9.00000000      51.99610000       91        3
Mn       5.40000000       5.40000000       7.20000000      54.93804400       92        5
Mn       3.60000000       3.60000000      10.80000000      54.93804400       93        5
Co       3.60000000       5.40000000      12.60000000      58.93319400       94        1
Fe       5.40000000       3.60000000      12.60000000      55.84500000       95        4
Fe       5.40000000       5.40000000      10.80000000      55.84500000       96        4
Mn       3.60000000       7.20000000       0.00000000      54.93804400       97        5
Ni       3.60000000       9.00000000       1.80000000      58.69340000       98        2
Ni       5.40000000       7.20000000       1.80000000      58.69340000       99        2
Mn       5.40000000       9.00000000       0.00000000      54.93804400      100        5
Mn       3.60000000       7.20000000       3.60000000      54.93804400      101        5
Co       3.60000000       9.00000000       5.40000000      58.93319400      102        1
Ni       5.40000000       7.20000000       5.40000000      58.69340000      103        2
Mn       5.40000000       9.00000000       3.60000000      54.93804400      104        5
Fe       3.60000000       7.20000000       7.20000000      55.84500000      105        4
Fe       3.60000000       9.00000000       9.00000000      55.84500000      106        4
Co       5.40000000       7.20000000       9.00000000      58.93319400      107        1
Mn       5.40000000       9.00000000       7.20000000      54.93804400      108        5
Mn       3.60000000       7.20000000      10.80000000      54.93804400      109        5
Ni       3.60000000       9.00000000      12.60000000      58.69340000      110        2
Ni       5.40000000       7.20000000      12.60000000      58.69340000      111        2
Co       5.40000000       9.00000000      10.80000000      58.93319400      112        1
Mn       3.60000000      10.80000000       0.00000000      54.93804400      113        5
Cr       3.60000000      12.60000000       1.80000000      51.99610000      114        3
Ni       5.40000000      10.80000000       1.80000000      58.69340000      115        2
Cr       5.40000000      12.60000000       0.00000000      51.99610000      116        3
Fe       3.60000000      10.80000000       3.60000000      55.84500000      117        4
Co       3.60000000      12.60000000       5.40000000      58.93319400      118        1
Fe       5.40000000      10.80000000       5.40000000      55.84500000      119        4
Co       5.40000000      12.60000000       3.60000000      58.93319400      120        1
Fe       3.60000000      10.80000000       7.20000000      55.84500000      121        4
Fe       3.60000000      12.60000000       9.00000000      55.84500000      122        4
Cr       5.40000000      10.80000000       9.00000000      51.99610000      123        3
Co       5.40000000      12.60000000       7.20000000      58.93319400      124        1
Cr       3.60000000      10.80000000      10.80000000      51.99610000      125        3
Cr       3.60000000      12.60000000      12.60000000      51.99610000      126        3
Ni       5.40000000      10.80000000      12.60000000      58.69340000      127        2
Mn       5.40000000      12.60000000      10.80000000      54.93804400      128        5
Mn       7.20000000       0.00000000       0.00000000      54.93804400      129        5
Fe       7.20000000       1.80000000       1.80000000      55.84500000      130        4
Cr       9.00000000       0.00000000       1.80000000      51.99610000      131        3
Co       9.00000000       1.80000000       0.00000000      58.93319400      132        1
Mn       7.20000000       0.00000000       3.60000000      54.93804400      133        5
Cr       7.20000000       1.80000000       5.40000000      51.99610000      134        3
Ni       9.00000000       0.00000000       5.40000000      58.69340000      135        2
Cr       9.00000000       1.80000000       3.60000000      51.99610000      136        3
Mn       7.20000000       0.00000000       7.20000000      54.93804400      137        5
Cr       7.20000000       1.80000000       9.00000000      51.99610000      138        3
Ni       9.00000000       0.00000000       9.00000000      58.69340000      139        2
Mn       9.00000000       1.80000000       7.20000000      54.93804400      140        5
Cr       7.20000000       0.00000000      10.80000000      51.99610000      141        3
Mn       7.20000000       1.80000000      12.60000000      54.93804400      142        5
Ni       9.00000000       0.00000000      12.60000000      58.69340000      143        2
Cr       9.00000000       1.80000000      10.80000000      51.99610000      144        3
Co       7.20000000       3.60000000       0.00000000      58.93319400      145        1
Cr       7.20000000       5.40000000       1.80000000      51.99610000      146        3
Fe       9.00000000       3.60000000       1.80000000      55.84500000      147        4
Fe       9.00000000       5.40000000       0.00000000      55.84500000      148        4
Cr       7.20000000       3.60000000       3.60000000      51.99610000      149        3
Cr       7.20000000       5.40000000       5.40000000      51.99610000      150        3
Ni       9.00000000       3.60000000       5.40000000      58.69340000      151        2
Cr       9.00000000       5.40000000       3.60000000      51.99610000      152        3
Ni       7.20000000       3.60000000       7.20000000      58.69340000      153        2
Co       7.20000000       5.40000000       9.00000000      58.93319400      154        1
Co       9.00000000       3.60000000       9.00000000      58.93319400      155        1
Mn       9.00000000       5.40000000       7.20000000      54.93804400      156        5
Cr       7.20000000       3.60000000      10.80000000      51.99610000      157        3
Co       7.20000000       5.40000000      12.60000000      58.93319400      158        1
Fe       9.00000000       3.60000000      12.60000000      55.84500000      159        4
Fe       9.00000000       5.40000000      10.80000000      55.84500000      160        4
Mn       7.20000000       7.20000000       0.00000000      54.93804400      161        5
Co       7.20000000       9.00000000       1.80000000      58.93319400      162        1
Ni       9.00000000       7.20000000       1.80000000      58.69340000      163        2
Fe       9.00000000       9.00000000       0.00000000      55.84500000      164        4
Cr       7.20000000       7.20000000       3.60000000      51.99610000      165        3
Cr       7.20000000       9.00000000       5.40000000      51.99610000      166        3
Ni       9.00000000       7.20000000       5.40000000      58.69340000      167        2
Ni       9.00000000       9.00000000       3.60000000      58.69340000      168        2
Fe       7.20000000       7.20000000       7.20000000      55.84500000      169        4
Fe       7.20000000       9.00000000       9.00000000      55.84500000      170        4
Co       9.00000000       7.20000000       9.00000000      58.93319400      171        1
Co       9.00000000       9.00000000       7.20000000      58.93319400      172        1
Fe       7.20000000       7.20000000      10.80000000      55.84500000      173        4
Co       7.20000000       9.00000000      12.60000000      58.93319400      174        1
Co       9.00000000       7.20000000      12.60000000      58.93319400      175        1
Co       9.00000000       9.00000000      10.80000000      58.93319400      176        1
Cr       7.20000000      10.80000000       0.00000000      51.99610000      177        3
Ni       7.20000000      12.60000000       1.80000000      58.69340000      178        2
Mn       9.00000000      10.80000000       1.80000000      54.93804400      179        5
Fe       9.00000000      12.60000000       0.00000000      55.84500000      180        4
Mn       7.20000000      10.80000000       3.60000000      54.93804400      181        5
Fe       7.20000000      12.60000000       5.40000000      55.84500000      182        4
Cr       9.00000000      10.80000000       5.40000000      51.99610000      183        3
Cr       9.00000000      12.60000000       3.60000000      51.99610000      184        3
Cr       7.20000000      10.80000000       7.20000000      51.99610000      185        3
Cr       7.20000000      12.60000000       9.00000000      51.99610000      186        3
Co       9.00000000      10.80000000       9.00000000      58.93319400      187        1
Cr       9.00000000      12.60000000       7.20000000      51.99610000      188        3
Fe       7.20000000      10.80000000      10.80000000      55.84500000      189        4
Cr       7.20000000      12.60000000      12.60000000      51.99610000      190        3
Co       9.00000000      10.80000000      12.60000000      58.93319400      191        1
Cr       9.00000000      12.60000000      10.80000000      51.99610000      192        3
Fe      10.80000000       0.00000000       0.00000000      55.84500000      193        4
Fe      10.80000000       1.80000000       1.80000000      55.84500000      194        4
Mn      12.60000000       0.00000000       1.80000000      54.93804400      195        5
Co      12.60000000       1.80000000       0.00000000      58.93319400      196        1
Cr      10.80000000       0.00000000       3.60000000      51.99610000      197        3
Mn      10.80000000       1.80000000       5.40000000      54.93804400      198        5
Ni      12.60000000       0.00000000       5.40000000      58.69340000      199        2
Mn      12.60000000       1.80000000       3.60000000      54.93804400      200        5
Cr      10.80000000       0.00000000       7.20000000      51.99610000      201        3
Fe      10.80000000       1.80000000       9.00000000      55.84500000      202        4
Cr      12.60000000       0.00000000       9.00000000      51.99610000      203        3
Ni      12.60000000       1.80000000       7.20000000      58.69340000      204        2
Ni      10.80000000       0.00000000      10.80000000      58.69340000      205        2
Mn      10.80000000       1.80000000      12.60000000      54.93804400      206        5
Ni      12.60000000       0.00000000      12.60000000      58.69340000      207        2
Mn      12.60000000       1.80000000      10.80000000      54.93804400      208        5
Co      10.80000000       3.60000000       0.00000000      58.93319400      209        1
Co      10.80000000       5.40000000       1.80000000      58.93319400      210        1
Co      12.60000000       3.60000000       1.80000000      58.93319400      211        1
Fe      12.60000000       5.40000000       0.00000000      55.84500000      212        4
Fe      10.80000000       3.60000000       3.60000000      55.84500000      213        4
Mn      10.80000000       5.40000000       5.40000000      54.93804400      214        5
Mn      12.60000000       3.60000000       5.40000000      54.93804400      215        5
Fe      12.60000000       5.40000000       3.60000000      55.84500000      216        4
Ni      10.80000000       3.60000000       7.20000000      58.69340000      217        2
Mn      10.80000000       5.40000000       9.00000000      54.93804400      218        5
Mn      12.60000000       3.60000000       9.00000000      54.93804400      219        5
Ni      12.60000000       5.40000000       7.20000000      58.69340000      220        2
Co      10.80000000       3.60000000      10.80000000      58.93319400      221        1
Fe      10.80000000       5.40000000      12.60000000      55.84500000      222        4
Fe      12.60000000       3.60000000      12.60000000      55.84500000      223        4
Fe      12.60000000       5.40000000      10.80000000      55.84500000      224        4
Mn      10.80000000       7.20000000       0.00000000      54.93804400      225        5
Co      10.80000000       9.00000000       1.80000000      58.93319400      226        1
Fe      12.60000000       7.20000000       1.80000000      55.84500000      227        4
Fe      12.60000000       9.00000000       0.00000000      55.84500000      228        4
Mn      10.80000000       7.20000000       3.60000000      54.93804400      229        5
Fe      10.80000000       9.00000000       5.40000000      55.84500000      230        4
Co      12.60000000       7.20000000       5.40000000      58.93319400      231        1
Co      12.60000000       9.00000000       3.60000000      58.93319400      232        1
Mn      10.80000000       7.20000000       7.20000000      54.93804400      233        5
Fe      10.80000000       9.00000000       9.00000000      55.84500000      234        4
Ni      12.60000000       7.20000000       9.00000000      58.69340000      235        2
Co      12.60000000       9.00000000       7.20000000      58.93319400      236        1
Co      10.80000000       7.20000000      10.80000000      58.93319400      237        1
Fe      10.80000000       9.00000000      12.60000000      55.84500000      238        4
Co      12.60000000       7.20000000      12.60000000      58.93319400      239        1
Mn      12.60000000       9.00000000      10.80000000      54.93804400      240        5
Mn      10.80000000      10.80000000       0.00000000      54.93804400      241        5
Ni      10.80000000      12.60000000       1.80000000      58.69340000      242        2
Fe      12.60000000      10.80000000       1.80000000      55.84500000      243        4
Cr      12.60000000      12.60000000       0.00000000      51.99610000      244        3
Mn      10.80000000      10.80000000       3.60000000      54.93804400      245        5
Ni      10.80000000      12.60000000       5.40000000      58.69340000      246        2
Co      12.60000000      10.80000000       5.40000000      58.93319400      247        1
Mn      12.60000000      12.60000000       3.60000000      54.93804400      248        5
Cr      10.80000000      10.80000000       7.20000000      51.99610000      249        3
Cr      10.80000000      12.60000000       9.00000000      51.99610000      250        3
Cr      12.60000000      10.80000000       9.00000000      51.99610000      251        3
Cr      12.60000000      12.60000000       7.20000000      51.99610000      252        3
Fe      10.80000000      10.80000000      10.80000000      55.84500000      253        4
Mn      10.80000000      12.60000000      12.60000000      54.93804400      254        5
Ni      12.60000000      10.80000000      12.60000000      58.69340000      255        2
Cr      12.60000000      12.60000000      10.80000000      51.99610000      256        3
