256
Lattice="14.4 0.0 0.0 0.0 14.4 0.0 0.0 0.0 14.4" Properties=species:S:1:pos:R:3:masses:R:1:id:I:1:type:I:1 comment="(written by ASE)" energy=-1017.80052895533 pbc="T T T"
Ni       0.00000000       0.00000000       0.00000000      58.69340000        1        2
Cr       0.00000000       1.80000000       1.80000000      51.99610000        2        3
Fe       1.80000000       0.00000000       1.80000000      55.84500000        3        4
Co       1.80000000       1.80000000       0.00000000      58.93319400        4        1
Ni       0.00000000       0.00000000       3.60000000      58.69340000        5        2
Ni       0.00000000       1.80000000       5.40000000      58.69340000        6        2
Mn       1.80000000       0.00000000       5.40000000      54.93804400        7        5
Co       1.80000000       1.80000000       3.60000000      58.93319400        8        1
Ni       0.00000000       0.00000000       7.20000000      58.69340000        9        2
Ni       0.00000000       1.80000000       9.00000000      58.69340000       10        2
Co       1.80000000       0.00000000       9.00000000      58.93319400       11        1
Fe       1.80000000       1.80000000       7.20000000      55.84500000       12        4
Ni       0.00000000       0.00000000      10.80000000      58.69340000       13        2
Ni       0.00000000       1.80000000      12.60000000      58.69340000       14        2
Ni       1.80000000       0.00000000      12.60000000      58.69340000       15        2
Ni       1.80000000       1.80000000      10.80000000      58.69340000       16        2
Cr       0.00000000       3.60000000       0.00000000      51.99610000       17        3
Cr       0.00000000       5.40000000       1.80000000      51.99610000       18        3
Cr       1.80000000       3.60000000       1.80000000      51.99610000       19        3
Cr       1.80000000       5.40000000       0.00000000      51.99610000       20        3
Cr       0.00000000       3.60000000       3.60000000      51.99610000       21        3
Co       0.00000000       5.40000000       5.40000000      58.93319400       22        1
Fe       1.80000000       3.60000000       5.40000000      55.84500000       23        4
Co       1.80000000       5.40000000       3.60000000      58.93319400       24        1
Ni       0.00000000       3.60000000       7.20000000      58.69340000       25        2
Fe       0.00000000       5.40000000       9.00000000      55.84500000       26        4
Ni       1.80000000       3.60000000       9.00000000      58.69340000       27        2
Co       1.80000000       5.40000000       7.20000000      58.93319400       28        1
Ni       0.00000000       3.60000000      10.80000000      58.69340000       29        2
Cr       0.00000000       5.40000000      12.60000000      51.99610000       30        3
Co       1.80000000       3.60000000      12.60000000      58.93319400       31        1
Ni       1.80000000       5.40000000      10.80000000      58.69340000       32        2
Co       0.00000000       7.20000000       0.00000000      58.93319400       33        1
Cr       0.00000000       9.00000000       1.80000000      51.99610000       34        3
Cr       1.80000000       7.20000000       1.80000000      51.99610000       35        3
Co       1.80000000       9.00000000       0.00000000      58.93319400       36        1
Cr       0.00000000       7.20000000       3.60000000      51.99610000       37        3
Co       0.00000000       9.00000000       5.40000000      58.93319400       38        1
Cr       1.80000000       7.20000000       5.40000000      51.99610000       39        3
Co       1.80000000       9.00000000       3.60000000      58.93319400       40        1
Fe       0.00000000       7.20000000       7.20000000      55.84500000       41        4
Fe       0.00000000       9.00000000       9.00000000      55.84500000       42        4
Fe       1.80000000       7.20000000       9.00000000      55.84500000       43        4
Co       1.80000000       9.00000000       7.20000000      58.93319400       44        1
Co       0.00000000       7.20000000      10.80000000      58.93319400       45        1
Fe       0.00000000       9.00000000      12.60000000      55.84500000       46        4
Cr       1.80000000       7.20000000      12.60000000      51.99610000       47        3
Co       1.80000000       9.00000000      10.80000000      58.93319400       48        1
Ni       0.00000000      10.80000000       0.00000000      58.69340000       49        2
Ni       0.00000000      12.60000000       1.80000000      58.69340000       50        2
Fe       1.80000000      10.80000000       1.80000000      55.84500000       51        4
Ni       1.80000000      12.60000000       0.00000000      58.69340000       52        2
Ni       0.00000000      10.80000000       3.60000000      58.69340000       53        2
Ni       0.00000000      12.60000000       5.40000000      58.69340000       54        2
Fe       1.80000000      10.80000000       5.40000000      55.84500000       55        4
Fe       1.80000000      12.60000000       3.60000000      55.84500000       56        4
Fe       0.00000000      10.80000000       7.20000000      55.84500000       57        4
Ni       0.00000000      12.60000000       9.00000000      58.69340000       58        2
Cr       1.80000000      10.80000000       9.00000000      51.99610000       59        3
Co       1.80000000      12.60000000       7.20000000      58.93319400       60        1
Fe       0.00000000      10.80000000      10.80000000      55.84500000       61        4
Ni       0.00000000      12.60000000      12.60000000      58.69340000       62        2
Co       1.80000000      10.80000000      12.60000000      58.93319400       63        1
Fe       1.80000000      12.60000000      10.80000000      55.84500000       64        4
Fe       3.60000000       0.00000000       0.00000000      55.84500000       65        4
Cr       3.60000000       1.80000000       1.80000000      51.99610000       66        3
Mn       5.40000000       0.00000000       1.80000000      54.93804400       67        5
Fe       5.40000000       1.80000000       0.00000000      55.84500000       68        4
Mn       3.60000000       0.00000000       3.60000000      54.93804400       69        5
Mn       3.60000000       1.80000000       5.40000000      54.93804400       70        5
Mn       5.40000000       0.00000000       5.40000000      54.93804400       71        5
Fe       5.40000000       1.80000000       3.60000000      55.84500000       72        4
Fe       3.60000000       0.00000000       7.20000000      55.84500000       73        4
Ni       3.60000000       1.80000000       9.00000000      58.69340000       74        2
Fe       5.40000000       0.00000000       9.00000000      55.84500000       75        4
Fe       5.40000000       1.80000000       7.20000000      55.84500000       76        4
Fe       3.60000000       0.00000000      10.80000000      55.84500000       77        4
Ni       3.60000000       1.80000000      12.60000000      58.69340000       78        2
Mn       5.40000000       0.00000000      12.60000000      54.93804400       79        5
Ni       5.40000000       1.80000000      10.80000000      58.69340000       80        2
Cr       3.60000000       3.60000000       0.00000000      51.99610000       81        3
Cr       3.60000000       5.40000000       1.80000000      51.99610000       82        3
Cr       5.40000000       3.60000000       1.80000000      51.99610000       83        3
Cr       5.40000000       5.40000000       0.00000000      51.99610000       84        3
Cr       3.60000000       3.60000000       3.60000000      51.99610000       85        3
Cr       3.60000000       5.40000000       5.40000000      51.99610000       86        3
Co       5.40000000       3.60000000       5.40000000      58.93319400       87        1
Cr       5.40000000       5.40000000       3.60000000      51.99610000       88        3
Ni       3.60000000       3.60000000       7.20000000      58.69340000       89        2
Ni       3.60000000       5.40000000       9.00000000      58.69340000       90        2
Ni       5.40000000       3.60000000       9.00000000      58.69340000       91        2
Co       5.40000000       5.40000000       7.20000000      58.93319400       92        1
Ni       3.60000000       3.60000000      10.80000000      58.69340000       93        2
Co       3.60000000       5.40000000      12.60000000      58.93319400       94        1
Co       5.40000000       3.60000000      12.60000000      58.93319400       95        1
Ni       5.40000000       5.40000000      10.80000000      58.69340000       96        2
Cr       3.60000000       7.20000000       0.00000000      51.99610000       97        3
Cr       3.60000000       9.00000000       1.80000000      51.99610000       98        3
Co       5.40000000       7.20000000       1.80000000      58.93319400       99        1
Mn       5.40000000       9.00000000       0.00000000      54.93804400      100        5
Cr       3.60000000       7.20000000       3.60000000      51.99610000      101        3
Fe       3.60000000       9.00000000       5.40000000      55.84500000      102        4
Co       5.40000000       7.20000000       5.40000000      58.93319400      103        1
Cr       5.40000000       9.00000000       3.60000000      51.99610000      104        3
Fe       3.60000000       7.20000000       7.20000000      55.84500000      105        4
Cr       3.60000000       9.00000000       9.00000000      51.99610000      106        3
Fe       5.40000000       7.20000000       9.00000000      55.84500000      107        4
Fe       5.40000000       9.00000000       7.20000000      55.84500000      108        4
Ni       3.60000000       7.20000000      10.80000000      58.69340000      109        2
Fe       3.60000000       9.00000000      12.60000000      55.84500000      110        4
Fe       5.40000000       7.20000000      12.60000000      55.84500000      111        4
Co       5.40000000       9.00000000      10.80000000      58.93319400      112        1
Mn       3.60000000      10.80000000       0.00000000      54.93804400      113        5
Mn       3.60000000      12.60000000       1.80000000      54.93804400      114        5
Mn       5.40000000      10.80000000       1.80000000      54.93804400      115        5
Mn       5.40000000      12.60000000       0.00000000      54.93804400      116        5
Mn       3.60000000      10.80000000       3.60000000      54.93804400      117        5
Fe       3.60000000      12.60000000       5.40000000      55.84500000      118        4
Fe       5.40000000      10.80000000       5.40000000      55.84500000      119        4
Mn       5.40000000      12.60000000       3.60000000      54.93804400      120        5
Cr       3.60000000      10.80000000       7.20000000      51.99610000      121        3
Cr       3.60000000      12.60000000       9.00000000      51.99610000      122        3
Co       5.40000000      10.80000000       9.00000000      58.93319400      123        1
Co       5.40000000      12.60000000       7.20000000      58.93319400      124        1
Cr       3.60000000      10.80000000      10.80000000      51.99610000      125        3
Ni       3.60000000      12.60000000      12.60000000      58.69340000      126        2
Fe       5.40000000      10.80000000      12.60000000      55.84500000      127        4
Co       5.40000000      12.60000000      10.80000000      58.93319400      128        1
Mn       7.20000000       0.00000000       0.00000000      54.93804400      129        5
Co       7.20000000       1.80000000       1.80000000      58.93319400      130        1
Mn       9.00000000       0.00000000       1.80000000      54.93804400      131        5
Mn       9.00000000       1.80000000       0.00000000      54.93804400      132        5
Mn       7.20000000       0.00000000       3.60000000      54.93804400      133        5
Fe       7.20000000       1.80000000       5.40000000      55.84500000      134        4
Mn       9.00000000       0.00000000       5.40000000      54.93804400      135        5
Co       9.00000000       1.80000000       3.60000000      58.93319400      136        1
Mn       7.20000000       0.00000000       7.20000000      54.93804400      137        5
Co       7.20000000       1.80000000       9.00000000      58.93319400      138        1
Mn       9.00000000       0.00000000       9.00000000      54.93804400      139        5
Co       9.00000000       1.80000000       7.20000000      58.93319400      140        1
Fe       7.20000000       0.00000000      10.80000000      55.84500000      141        4
Mn       7.20000000       1.80000000      12.60000000      54.93804400      142        5
Mn       9.00000000       0.00000000      12.60000000      54.93804400      143        5
Mn       9.00000000       1.80000000      10.80000000      54.93804400      144        5
Mn       7.20000000       3.60000000       0.00000000      54.93804400      145        5
Cr       7.20000000       5.40000000       1.80000000      51.99610000      146        3
Co       9.00000000       3.60000000       1.80000000      58.93319400      147        1
Fe       9.00000000       5.40000000       0.00000000      55.84500000      148        4
Cr       7.20000000       3.60000000       3.60000000      51.99610000      149        3
Cr       7.20000000       5.40000000       5.40000000      51.99610000      150        3
Cr       9.00000000       3.60000000       5.40000000      51.99610000      151        3
Cr       9.00000000       5.40000000       3.60000000      51.99610000      152        3
Cr       7.20000000       3.60000000       7.20000000      51.99610000      153        3
Co       7.20000000       5.40000000       9.00000000      58.93319400      154        1
Mn       9.00000000       3.60000000       9.00000000      54.93804400      155        5
Co       9.00000000       5.40000000       7.20000000      58.93319400      156        1
Ni       7.20000000       3.60000000      10.80000000      58.69340000      157        2
Mn       7.20000000       5.40000000      12.60000000      54.93804400      158        5
Mn       9.00000000       3.60000000      12.60000000      54.93804400      159        5
Mn       9.00000000       5.40000000      10.80000000      54.93804400      160        5
Fe       7.20000000       7.20000000       0.00000000      55.84500000      161        4
Mn       7.20000000       9.00000000       1.80000000      54.93804400      162        5
Co       9.00000000       7.20000000       1.80000000      58.93319400      163        1
Mn       9.00000000       9.00000000       0.00000000      54.93804400      164        5
Cr       7.20000000       7.20000000       3.60000000      51.99610000      165        3
Co       7.20000000       9.00000000       5.40000000      58.93319400      166        1
Co       9.00000000       7.20000000       5.40000000      58.93319400      167        1
Cr       9.00000000       9.00000000       3.60000000      51.99610000      168        3
Mn       7.20000000       7.20000000       7.20000000      54.93804400      169        5
Fe       7.20000000       9.00000000       9.00000000      55.84500000      170        4
Mn       9.00000000       7.20000000       9.00000000      54.93804400      171        5
Mn       9.00000000       9.00000000       7.20000000      54.93804400      172        5
Fe       7.20000000       7.20000000      10.80000000      55.84500000      173        4
Mn       7.20000000       9.00000000      12.60000000      54.93804400      174        5
Mn       9.00000000       7.20000000      12.60000000      54.93804400      175        5
Mn       9.00000000       9.00000000      10.80000000      54.93804400      176        5
Mn       7.20000000      10.80000000       0.00000000      54.93804400      177        5
Mn       7.20000000      12.60000000       1.80000000      54.93804400      178        5
Mn       9.00000000      10.80000000       1.80000000      54.93804400      179        5
Mn       9.00000000      12.60000000       0.00000000      54.93804400      180        5
Mn       7.20000000      10.80000000       3.60000000      54.93804400      181        5
Mn       7.20000000      12.60000000       5.40000000      54.93804400      182        5
Mn       9.00000000      10.80000000       5.40000000      54.93804400      183        5
Mn       9.00000000      12.60000000       3.60000000      54.93804400      184        5
Mn       7.20000000      10.80000000       7.20000000      54.93804400      185        5
Mn       7.20000000      12.60000000       9.00000000      54.93804400      186        5
Mn       9.00000000      10.80000000       9.00000000      54.93804400      187        5
Fe       9.00000000      12.60000000       7.20000000      55.84500000      188        4
Mn       7.20000000      10.80000000      10.80000000      54.93804400      189        5
Mn       7.20000000      12.60000000      12.60000000      54.93804400      190        5
Mn       9.00000000      10.80000000      12.60000000      54.93804400      191        5
Mn       9.00000000      12.60000000      10.80000000      54.93804400      192        5
Mn      10.80000000       0.00000000       0.00000000      54.93804400      193        5
Fe      10.80000000       1.80000000       1.80000000      55.84500000      194        4
Ni      12.60000000       0.00000000       1.80000000      58.69340000      195        2
Fe      12.60000000       1.80000000       0.00000000      55.84500000      196        4
Fe      10.80000000       0.00000000       3.60000000      55.84500000      197        4
Ni      10.80000000       1.80000000       5.40000000      58.69340000      198        2
Ni      12.60000000       0.00000000       5.40000000      58.69340000      199        2
Co      12.60000000       1.80000000       3.60000000      58.93319400      200        1
Ni      10.80000000       0.00000000       7.20000000      58.69340000      201        2
Fe      10.80000000       1.80000000       9.00000000      55.84500000      202        4
Ni      12.60000000       0.00000000       9.00000000      58.69340000      203        2
Fe      12.60000000       1.80000000       7.20000000      55.84500000      204        4
Mn      10.80000000       0.00000000      10.80000000      54.93804400      205        5
Fe      10.80000000       1.80000000      12.60000000      55.84500000      206        4
Co      12.60000000       0.00000000      12.60000000      58.93319400      207        1
Fe      12.60000000       1.80000000      10.80000000      55.84500000      208        4
Cr      10.80000000       3.60000000       0.00000000      51.99610000      209        3
Cr      10.80000000       5.40000000       1.80000000      51.99610000      210        3
Co      12.60000000       3.60000000       1.80000000      58.93319400      211        1
Cr      12.60000000       5.40000000       0.00000000      51.99610000      212        3
Cr      10.80000000       3.60000000       3.60000000      51.99610000      213        3
Cr      10.80000000       5.40000000       5.40000000      51.99610000      214        3
Co      12.60000000       3.60000000       5.40000000      58.93319400      215        1
Cr      12.60000000       5.40000000       3.60000000      51.99610000      216        3
Cr      10.80000000       3.60000000       7.20000000      51.99610000      217        3
Mn      10.80000000       5.40000000       9.00000000      54.93804400      218        5
Co      12.60000000       3.60000000       9.00000000      58.93319400      219        1
Co      12.60000000       5.40000000       7.20000000      58.93319400      220        1
Mn      10.80000000       3.60000000      10.80000000      54.93804400      221        5
Co      10.80000000       5.40000000      12.60000000      58.93319400      222        1
Co      12.60000000       3.60000000      12.60000000      58.93319400      223        1
Fe      12.60000000       5.40000000      10.80000000      55.84500000      224        4
Fe      10.80000000       7.20000000       0.00000000      55.84500000      225        4
Fe      10.80000000       9.00000000       1.80000000      55.84500000      226        4
Co      12.60000000       7.20000000       1.80000000      58.93319400      227        1
Ni      12.60000000       9.00000000       0.00000000      58.69340000      228        2
Cr      10.80000000       7.20000000       3.60000000      51.99610000      229        3
Co      10.80000000       9.00000000       5.40000000      58.93319400      230        1
Cr      12.60000000       7.20000000       5.40000000      51.99610000      231        3
Cr      12.60000000       9.00000000       3.60000000      51.99610000      232        3
Mn      10.80000000       7.20000000       7.20000000      54.93804400      233        5
Fe      10.80000000       9.00000000       9.00000000      55.84500000      234        4
Mn      12.60000000       7.20000000       9.00000000      54.93804400      235        5
Ni      12.60000000       9.00000000       7.20000000      58.69340000      236        2
Mn      10.80000000       7.20000000      10.80000000      54.93804400      237        5
Fe      10.80000000       9.00000000      12.60000000      55.84500000      238        4
Co      12.60000000       7.20000000      12.60000000      58.93319400      239        1
Mn      12.60000000       9.00000000      10.80000000      54.93804400      240        5
Mn      10.80000000      10.80000000       0.00000000      54.93804400      241        5
Fe      10.80000000      12.60000000       1.80000000      55.84500000      242        4
Co      12.60000000      10.80000000       1.80000000      58.93319400      243        1
Ni      12.60000000      12.60000000       0.00000000      58.69340000      244        2
Fe      10.80000000      10.80000000       3.60000000      55.84500000      245        4
Mn      10.80000000      12.60000000       5.40000000      54.93804400      246        5
Co      12.60000000      10.80000000       5.40000000      58.93319400      247        1
Ni      12.60000000      12.60000000       3.60000000      58.69340000      248        2
Fe      10.80000000      10.80000000       7.20000000      55.84500000      249        4
Ni      10.80000000      12.60000000       9.00000000      58.69340000      250        2
Ni      12.60000000      10.80000000       9.00000000      58.69340000      251        2
Ni      12.60000000      12.60000000       7.20000000      58.69340000      252        2
Ni      10.80000000      10.80000000      10.80000000      58.69340000      253        2
Fe      10.80000000      12.60000000      12.60000000      55.84500000      254        4
Ni      12.60000000      10.80000000      12.60000000      58.69340000      255        2
Ni      12.60000000      12.60000000      10.80000000      58.69340000      256        2
