256
Lattice="14.4 0.0 0.0 0.0 14.4 0.0 0.0 0.0 14.4" Properties=species:S:1:pos:R:3:masses:R:1:id:I:1:type:I:1 comment="(written by ASE)" energy=-1020.38239301006 pbc="T T T"
Cr       0.00000000       0.00000000       0.00000000      51.99610000        1        3
Cr       0.00000000       1.80000000       1.80000000      51.99610000        2        3
Cr       1.80000000       0.00000000       1.80000000      51.99610000        3        3
Cr       1.80000000       1.80000000       0.00000000      51.99610000        4        3
Ni       0.00000000       0.00000000       3.60000000      58.69340000        5        2
Co       0.00000000       1.80000000       5.40000000      58.93319400        6        1
Co       1.80000000       0.00000000       5.40000000      58.93319400        7        1
Ni       1.80000000       1.80000000       3.60000000      58.69340000        8        2
Co       0.00000000       0.00000000       7.20000000      58.93319400        9        1
Fe       0.00000000       1.80000000       9.00000000      55.84500000       10        4
Co       1.80000000       0.00000000       9.00000000      58.93319400       11        1
Ni       1.80000000       1.80000000       7.20000000      58.69340000       12        2
Ni       0.00000000       0.00000000      10.80000000      58.69340000       13        2
Cr       0.00000000       1.80000000      12.60000000      51.99610000       14        3
Ni       1.80000000       0.00000000      12.60000000      58.69340000       15        2
Mn       1.80000000       1.80000000      10.80000000      54.93804400       16        5
Cr       0.00000000       3.60000000       0.00000000      51.99610000       17        3
Cr       0.00000000       5.40000000       1.80000000      51.99610000       18        3
Cr       1.80000000       3.60000000       1.80000000      51.99610000       19        3
Cr       1.80000000       5.40000000       0.00000000      51.99610000       20        3
Ni       0.00000000       3.60000000       3.60000000      58.69340000       21        2
Co       0.00000000       5.40000000       5.40000000      58.93319400       22        1
Co       1.80000000       3.60000000       5.40000000      58.93319400       23        1
Ni       1.80000000       5.40000000       3.60000000      58.69340000       24        2
Ni       0.00000000       3.60000000       7.20000000      58.69340000       25        2
Co       0.00000000       5.40000000       9.00000000      58.93319400       26        1
Co       1.80000000       3.60000000       9.00000000      58.93319400       27        1
Co       1.80000000       5.40000000       7.20000000      58.93319400       28        1
Fe       0.00000000       3.60000000      10.80000000      55.84500000       29        4
Mn       0.00000000       5.40000000      12.60000000      54.93804400       30        5
Cr       1.80000000       3.60000000      12.60000000      51.99610000       31        3
Ni       1.80000000       5.40000000      10.80000000      58.69340000       32        2
Ni       0.00000000       7.20000000       0.00000000      58.69340000       33        2
Co       0.00000000       9.00000000       1.80000000      58.93319400       34        1
Cr       1.80000000       7.20000000       1.80000000      51.99610000       35        3
Co       1.80000000       9.00000000       0.00000000      58.93319400       36        1
Ni       0.00000000       7.20000000       3.60000000      58.69340000       37        2
Ni       0.00000000       9.00000000       5.40000000      58.69340000       38        2
Ni       1.80000000       7.20000000       5.40000000      58.69340000       39        2
Cr       1.80000000       9.00000000       3.60000000      51.99610000       40        3
Co       0.00000000       7.20000000       7.20000000      58.93319400       41        1
Ni       0.00000000       9.00000000       9.00000000      58.69340000       42        2
Co       1.80000000       7.20000000       9.00000000      58.93319400       43        1
Ni       1.80000000       9.00000000       7.20000000      58.69340000       44        2
Co       0.00000000       7.20000000      10.80000000      58.93319400       45        1
Co       0.00000000       9.00000000      12.60000000      58.93319400       46        1
Co       1.80000000       7.20000000      12.60000000      58.93319400       47        1
Ni       1.80000000       9.00000000      10.80000000      58.69340000       48        2
Ni       0.00000000      10.80000000       0.00000000      58.69340000       49        2
Cr       0.00000000      12.60000000       1.80000000      51.99610000       50        3
Ni       1.80000000      10.80000000       1.80000000      58.69340000       51        2
Cr       1.80000000      12.60000000       0.00000000      51.99610000       52        3
Cr       0.00000000      10.80000000       3.60000000      51.99610000       53        3
Co       0.00000000      12.60000000       5.40000000      58.93319400       54        1
Co       1.80000000      10.80000000       5.40000000      58.93319400       55        1
Ni       1.80000000      12.60000000       3.60000000      58.69340000       56        2
Co       0.00000000      10.80000000       7.20000000      58.93319400       57        1
Cr       0.00000000      12.60000000       9.00000000      51.99610000       58        3
Cr       1.80000000      10.80000000       9.00000000      51.99610000       59        3
Ni       1.80000000      12.60000000       7.20000000      58.69340000       60        2
Cr       0.00000000      10.80000000      10.80000000      51.99610000       61        3
Cr       0.00000000      12.60000000      12.60000000      51.99610000       62        3
Ni       1.80000000      10.80000000      12.60000000      58.69340000       63        2
Ni       1.80000000      12.60000000      10.80000000      58.69340000       64        2
Cr       3.60000000       0.00000000       0.00000000      51.99610000       65        3
Mn       3.60000000       1.80000000       1.80000000      54.93804400       66        5
Mn       5.40000000       0.00000000       1.80000000      54.93804400       67        5
Mn       5.40000000       1.80000000       0.00000000      54.93804400       68        5
Fe       3.60000000       0.00000000       3.60000000      55.84500000       69        4
Co       3.60000000       1.80000000       5.40000000      58.93319400       70        1
Co       5.40000000       0.00000000       5.40000000      58.93319400       71        1
Ni       5.40000000       1.80000000       3.60000000      58.69340000       72        2
Co       3.60000000       0.00000000       7.20000000      58.93319400       73        1
Cr       3.60000000       1.80000000       9.00000000      51.99610000       74        3
Cr       5.40000000       0.00000000       9.00000000      51.99610000       75        3
Cr       5.40000000       1.80000000       7.20000000      51.99610000       76        3
Ni       3.60000000       0.00000000      10.80000000      58.69340000       77        2
Mn       3.60000000       1.80000000      12.60000000      54.93804400       78        5
Mn       5.40000000       0.00000000      12.60000000      54.93804400       79        5
Mn       5.40000000       1.80000000      10.80000000      54.93804400       80        5
Cr       3.60000000       3.60000000       0.00000000      51.99610000       81        3
Cr       3.60000000       5.40000000       1.80000000      51.99610000       82        3
Cr       5.40000000       3.60000000       1.80000000      51.99610000       83        3
Mn       5.40000000       5.40000000       0.00000000      54.93804400       84        5
Cr       3.60000000       3.60000000       3.60000000      51.99610000       85        3
Co       3.60000000       5.40000000       5.40000000      58.93319400       86        1
Ni       5.40000000       3.60000000       5.40000000      58.69340000       87        2
Cr       5.40000000       5.40000000       3.60000000      51.99610000       88        3
Ni       3.60000000       3.60000000       7.20000000      58.69340000       89        2
Ni       3.60000000       5.40000000       9.00000000      58.69340000       90        2
Mn       5.40000000       3.60000000       9.00000000      54.93804400       91        5
Fe       5.40000000       5.40000000       7.20000000      55.84500000       92        4
Mn       3.60000000       3.60000000      10.80000000      54.93804400       93        5
Mn       3.60000000       5.40000000      12.60000000      54.93804400       94        5
Mn       5.40000000       3.60000000      12.60000000      54.93804400       95        5
Mn       5.40000000       5.40000000      10.80000000      54.93804400       96        5
Ni       3.60000000       7.20000000       0.00000000      58.69340000       97        2
Mn       3.60000000       9.00000000       1.80000000      54.93804400       98        5
Cr       5.40000000       7.20000000       1.80000000      51.99610000       99        3
Mn       5.40000000       9.00000000       0.00000000      54.93804400      100        5
Cr       3.60000000       7.20000000       3.60000000      51.99610000      101        3
Fe       3.60000000       9.00000000       5.40000000      55.84500000      102        4
Mn       5.40000000       7.20000000       5.40000000      54.93804400      103        5
Mn       5.40000000       9.00000000       3.60000000      54.93804400      104        5
Fe       3.60000000       7.20000000       7.20000000      55.84500000      105        4
Mn       3.60000000       9.00000000       9.00000000      54.93804400      106        5
Fe       5.40000000       7.20000000       9.00000000      55.84500000      107        4
Fe       5.40000000       9.00000000       7.20000000      55.84500000      108        4
Co       3.60000000       7.20000000      10.80000000      58.93319400      109        1
Co       3.60000000       9.00000000      12.60000000      58.93319400      110        1
Mn       5.40000000       7.20000000      12.60000000      54.93804400      111        5
Mn       5.40000000       9.00000000      10.80000000      54.93804400      112        5
Mn       3.60000000      10.80000000       0.00000000      54.93804400      113        5
Mn       3.60000000      12.60000000       1.80000000      54.93804400      114        5
Fe       5.40000000      10.80000000       1.80000000      55.84500000      115        4
Mn       5.40000000      12.60000000       0.00000000      54.93804400      116        5
Mn       3.60000000      10.80000000       3.60000000      54.93804400      117        5
Fe       3.60000000      12.60000000       5.40000000      55.84500000      118        4
Mn       5.40000000      10.80000000       5.40000000      54.93804400      119        5
Fe       5.40000000      12.60000000       3.60000000      55.84500000      120        4
Fe       3.60000000      10.80000000       7.20000000      55.84500000      121        4
Cr       3.60000000      12.60000000       9.00000000      51.99610000      122        3
Mn       5.40000000      10.80000000       9.00000000      54.93804400      123        5
Mn       5.40000000      12.60000000       7.20000000      54.93804400      124        5
Cr       3.60000000      10.80000000      10.80000000      51.99610000      125        3
Cr       3.60000000      12.60000000      12.60000000      51.99610000      126        3
Mn       5.40000000      10.80000000      12.60000000      54.93804400      127        5
Mn       5.40000000      12.60000000      10.80000000      54.93804400      128        5
Mn       7.20000000       0.00000000       0.00000000      54.93804400      129        5
Cr       7.20000000       1.80000000       1.80000000      51.99610000      130        3
Fe       9.00000000       0.00000000       1.80000000      55.84500000      131        4
Mn       9.00000000       1.80000000       0.00000000      54.93804400      132        5
Fe       7.20000000       0.00000000       3.60000000      55.84500000      133        4
Co       7.20000000       1.80000000       5.40000000      58.93319400      134        1
Co       9.00000000       0.00000000       5.40000000      58.93319400      135        1
Ni       9.00000000       1.80000000       3.60000000      58.69340000      136        2
Mn       7.20000000       0.00000000       7.20000000      54.93804400      137        5
Mn       7.20000000       1.80000000       9.00000000      54.93804400      138        5
Fe       9.00000000       0.00000000       9.00000000      55.84500000      139        4
Co       9.00000000       1.80000000       7.20000000      58.93319400      140        1
Mn       7.20000000       0.00000000      10.80000000      54.93804400      141        5
Mn       7.20000000       1.80000000      12.60000000      54.93804400      142        5
Mn       9.00000000       0.00000000      12.60000000      54.93804400      143        5
Fe       9.00000000       1.80000000      10.80000000      55.84500000      144        4
Mn       7.20000000       3.60000000       0.00000000      54.93804400      145        5
Cr       7.20000000       5.40000000       1.80000000      51.99610000      146        3
Cr       9.00000000       3.60000000       1.80000000      51.99610000      147        3
Cr       9.00000000       5.40000000       0.00000000      51.99610000      148        3
Cr       7.20000000       3.60000000       3.60000000      51.99610000      149        3
Cr       7.20000000       5.40000000       5.40000000      51.99610000      150        3
Ni       9.00000000       3.60000000       5.40000000      58.69340000      151        2
Cr       9.00000000       5.40000000       3.60000000      51.99610000      152        3
Co       7.20000000       3.60000000       7.20000000      58.93319400      153        1
Mn       7.20000000       5.40000000       9.00000000      54.93804400      154        5
Ni       9.00000000       3.60000000       9.00000000      58.69340000      155        2
Ni       9.00000000       5.40000000       7.20000000      58.69340000      156        2
Mn       7.20000000       3.60000000      10.80000000      54.93804400      157        5
Mn       7.20000000       5.40000000      12.60000000      54.93804400      158        5
Fe       9.00000000       3.60000000      12.60000000      55.84500000      159        4
Fe       9.00000000       5.40000000      10.80000000      55.84500000      160        4
Mn       7.20000000       7.20000000       0.00000000      54.93804400      161        5
Mn       7.20000000       9.00000000       1.80000000      54.93804400      162        5
Cr       9.00000000       7.20000000       1.80000000      51.99610000      163        3
Mn       9.00000000       9.00000000       0.00000000      54.93804400      164        5
Mn       7.20000000       7.20000000       3.60000000      54.93804400      165        5
Mn       7.20000000       9.00000000       5.40000000      54.93804400      166        5
Mn       9.00000000       7.20000000       5.40000000      54.93804400      167        5
Fe       9.00000000       9.00000000       3.60000000      55.84500000      168        4
Mn       7.20000000       7.20000000       7.20000000      54.93804400      169        5
Fe       7.20000000       9.00000000       9.00000000      55.84500000      170        4
Fe       9.00000000       7.20000000       9.00000000      55.84500000      171        4
Fe       9.00000000       9.00000000       7.20000000      55.84500000      172        4
Fe       7.20000000       7.20000000      10.80000000      55.84500000      173        4
Mn       7.20000000       9.00000000      12.60000000      54.93804400      174        5
Fe       9.00000000       7.20000000      12.60000000      55.84500000      175        4
Fe       9.00000000       9.00000000      10.80000000      55.84500000      176        4
Mn       7.20000000      10.80000000       0.00000000      54.93804400      177        5
Fe       7.20000000      12.60000000       1.80000000      55.84500000      178        4
Mn       9.00000000      10.80000000       1.80000000      54.93804400      179        5
Fe       9.00000000      12.60000000       0.00000000      55.84500000      180        4
Fe       7.20000000      10.80000000       3.60000000      55.84500000      181        4
Fe       7.20000000      12.60000000       5.40000000      55.84500000      182        4
Fe       9.00000000      10.80000000       5.40000000      55.84500000      183        4
Fe       9.00000000      12.60000000       3.60000000      55.84500000      184        4
Fe       7.20000000      10.80000000       7.20000000      55.84500000      185        4
Mn       7.20000000      12.60000000       9.00000000      54.93804400      186        5
Fe       9.00000000      10.80000000       9.00000000      55.84500000      187        4
Fe       9.00000000      12.60000000       7.20000000      55.84500000      188        4
Fe       7.20000000      10.80000000      10.80000000      55.84500000      189        4
Mn       7.20000000      12.60000000      12.60000000      54.93804400      190        5
Mn       9.00000000      10.80000000      12.60000000      54.93804400      191        5
Fe       9.00000000      12.60000000      10.80000000      55.84500000      192        4
Mn      10.80000000       0.00000000       0.00000000      54.93804400      193        5
Ni      10.80000000       1.80000000       1.80000000      58.69340000      194        2
Cr      12.60000000       0.00000000       1.80000000      51.99610000      195        3
Cr      12.60000000       1.80000000       0.00000000      51.99610000      196        3
Co      10.80000000       0.00000000       3.60000000      58.93319400      197        1
Co      10.80000000       1.80000000       5.40000000      58.93319400      198        1
Ni      12.60000000       0.00000000       5.40000000      58.69340000      199        2
Co      12.60000000       1.80000000       3.60000000      58.93319400      200        1
Fe      10.80000000       0.00000000       7.20000000      55.84500000      201        4
Fe      10.80000000       1.80000000       9.00000000      55.84500000      202        4
Fe      12.60000000       0.00000000       9.00000000      55.84500000      203        4
Fe      12.60000000       1.80000000       7.20000000      55.84500000      204        4
Fe      10.80000000       0.00000000      10.80000000      55.84500000      205        4
Mn      10.80000000       1.80000000      12.60000000      54.93804400      206        5
Cr      12.60000000       0.00000000      12.60000000      51.99610000      207        3
Mn      12.60000000       1.80000000      10.80000000      54.93804400      208        5
Co      10.80000000       3.60000000       0.00000000      58.93319400      209        1
Ni      10.80000000       5.40000000       1.80000000      58.69340000      210        2
Ni      12.60000000       3.60000000       1.80000000      58.69340000      211        2
Cr      12.60000000       5.40000000       0.00000000      51.99610000      212        3
Co      10.80000000       3.60000000       3.60000000      58.93319400      213        1
Ni      10.80000000       5.40000000       5.40000000      58.69340000      214        2
Co      12.60000000       3.60000000       5.40000000      58.93319400      215        1
Co      12.60000000       5.40000000       3.60000000      58.93319400      216        1
Co      10.80000000       3.60000000       7.20000000      58.93319400      217        1
Co      10.80000000       5.40000000       9.00000000      58.93319400      218        1
Fe      12.60000000       3.60000000       9.00000000      55.84500000      219        4
Co      12.60000000       5.40000000       7.20000000      58.93319400      220        1
Co      10.80000000       3.60000000      10.80000000      58.93319400      221        1
Ni      10.80000000       5.40000000      12.60000000      58.69340000      222        2
Mn      12.60000000       3.60000000      12.60000000      54.93804400      223        5
Ni      12.60000000       5.40000000      10.80000000      58.69340000      224        2
Co      10.80000000       7.20000000       0.00000000      58.93319400      225        1
Fe      10.80000000       9.00000000       1.80000000      55.84500000      226        4
Co      12.60000000       7.20000000       1.80000000      58.93319400      227        1
Co      12.60000000       9.00000000       0.00000000      58.93319400      228        1
Ni      10.80000000       7.20000000       3.60000000      58.69340000      229        2
Fe      10.80000000       9.00000000       5.40000000      55.84500000      230        4
Co      12.60000000       7.20000000       5.40000000      58.93319400      231        1
Co      12.60000000       9.00000000       3.60000000      58.93319400      232        1
Fe      10.80000000       7.20000000       7.20000000      55.84500000      233        4
Fe      10.80000000       9.00000000       9.00000000      55.84500000      234        4
Ni      12.60000000       7.20000000       9.00000000      58.69340000      235        2
Co      12.60000000       9.00000000       7.20000000      58.93319400      236        1
Co      10.80000000       7.20000000      10.80000000      58.93319400      237        1
Ni      10.80000000       9.00000000      12.60000000      58.69340000      238        2
Ni      12.60000000       7.20000000      12.60000000      58.69340000      239        2
Co      12.60000000       9.00000000      10.80000000      58.93319400      240        1
Fe      10.80000000      10.80000000       0.00000000      55.84500000      241        4
Ni      10.80000000      12.60000000       1.80000000      58.69340000      242        2
Co      12.60000000      10.80000000       1.80000000      58.93319400      243        1
Cr      12.60000000      12.60000000       0.00000000      51.99610000      244        3
Fe      10.80000000      10.80000000       3.60000000      55.84500000      245        4
Fe      10.80000000      12.60000000       5.40000000      55.84500000      246        4
Mn      12.60000000      10.80000000       5.40000000      54.93804400      247        5
Ni      12.60000000      12.60000000       3.60000000      58.69340000      248        2
Fe      10.80000000      10.80000000       7.20000000      55.84500000      249        4
Fe      10.80000000      12.60000000       9.00000000      55.84500000      250        4
Ni      12.60000000      10.80000000       9.00000000      58.69340000      251        2
Fe      12.60000000      12.60000000       7.20000000      55.84500000      252        4
Fe      10.80000000      10.80000000      10.80000000      55.84500000      253        4
Mn      10.80000000      12.60000000      12.60000000      54.93804400      254        5
Cr      12.60000000      10.80000000      12.60000000      51.99610000      255        3
Mn      12.60000000      12.60000000      10.80000000      54.93804400      256        5
