256
Lattice="14.4 0.0 0.0 0.0 14.4 0.0 0.0 0.0 14.4" Properties=species:S:1:pos:R:3:masses:R:1:id:I:1:type:I:1 comment="(written by ASE)" energy=-1018.61021395786 pbc="T T T"
Co       0.00000000       0.00000000       0.00000000      58.93319400        1        1
Fe       0.00000000       1.80000000       1.80000000      55.84500000        2        4
Fe       1.80000000       0.00000000       1.80000000      55.84500000        3        4
Mn       1.80000000       1.80000000       0.00000000      54.93804400        4        5
Fe       0.00000000       0.00000000       3.60000000      55.84500000        5        4
Ni       0.00000000       1.80000000       5.40000000      58.69340000        6        2
Fe       1.80000000       0.00000000       5.40000000      55.84500000        7        4
Cr       1.80000000       1.80000000       3.60000000      51.99610000        8        3
Ni       0.00000000       0.00000000       7.20000000      58.69340000        9        2
Co       0.00000000       1.80000000       9.00000000      58.93319400       10        1
Fe       1.80000000       0.00000000       9.00000000      55.84500000       11        4
Cr       1.80000000       1.80000000       7.20000000      51.99610000       12        3
Mn       0.00000000       0.00000000      10.80000000      54.93804400       13        5
Mn       0.00000000       1.80000000      12.60000000      54.93804400       14        5
Co       1.80000000       0.00000000      12.60000000      58.93319400       15        1
Co       1.80000000       1.80000000      10.80000000      58.93319400       16        1
Co       0.00000000       3.60000000       0.00000000      58.93319400       17        1
Ni       0.00000000       5.40000000       1.80000000      58.69340000       18        2
Fe       1.80000000       3.60000000       1.80000000      55.84500000       19        4
Cr       1.80000000       5.40000000       0.00000000      51.99610000       20        3
Ni       0.00000000       3.60000000       3.60000000      58.69340000       21        2
Ni       0.00000000       5.40000000       5.40000000      58.69340000       22        2
Ni       1.80000000       3.60000000       5.40000000      58.69340000       23        2
Cr       1.80000000       5.40000000       3.60000000      51.99610000       24        3
Fe       0.00000000       3.60000000       7.20000000      55.84500000       25        4
Co       0.00000000       5.40000000       9.00000000      58.93319400       26        1
Cr       1.80000000       3.60000000       9.00000000      51.99610000       27        3
Cr       1.80000000       5.40000000       7.20000000      51.99610000       28        3
Ni       0.00000000       3.60000000      10.80000000      58.69340000       29        2
Cr       0.00000000       5.40000000      12.60000000      51.99610000       30        3
Fe       1.80000000       3.60000000      12.60000000      55.84500000       31        4
Ni       1.80000000       5.40000000      10.80000000      58.69340000       32        2
Ni       0.00000000       7.20000000       0.00000000      58.69340000       33        2
Cr       0.00000000       9.00000000       1.80000000      51.99610000       34        3
Ni       1.80000000       7.20000000       1.80000000      58.69340000       35        2
Cr       1.80000000       9.00000000       0.00000000      51.99610000       36        3
Ni       0.00000000       7.20000000       3.60000000      58.69340000       37        2
Cr       0.00000000       9.00000000       5.40000000      51.99610000       38        3
Cr       1.80000000       7.20000000       5.40000000      51.99610000       39        3
Ni       1.80000000       9.00000000       3.60000000      58.69340000       40        2
Fe       0.00000000       7.20000000       7.20000000      55.84500000       41        4
Ni       0.00000000       9.00000000       9.00000000      58.69340000       42        2
Cr       1.80000000       7.20000000       9.00000000      51.99610000       43        3
Ni       1.80000000       9.00000000       7.20000000      58.69340000       44        2
Cr       0.00000000       7.20000000      10.80000000      51.99610000       45        3
Cr       0.00000000       9.00000000      12.60000000      51.99610000       46        3
Ni       1.80000000       7.20000000      12.60000000      58.69340000       47        2
Ni       1.80000000       9.00000000      10.80000000      58.69340000       48        2
Ni       0.00000000      10.80000000       0.00000000      58.69340000       49        2
Ni       0.00000000      12.60000000       1.80000000      58.69340000       50        2
Ni       1.80000000      10.80000000       1.80000000      58.69340000       51        2
Cr       1.80000000      12.60000000       0.00000000      51.99610000       52        3
Ni       0.00000000      10.80000000       3.60000000      58.69340000       53        2
Cr       0.00000000      12.60000000       5.40000000      51.99610000       54        3
Co       1.80000000      10.80000000       5.40000000      58.93319400       55        1
Cr       1.80000000      12.60000000       3.60000000      51.99610000       56        3
Fe       0.00000000      10.80000000       7.20000000      55.84500000       57        4
Co       0.00000000      12.60000000       9.00000000      58.93319400       58        1
Co       1.80000000      10.80000000       9.00000000      58.93319400       59        1
Co       1.80000000      12.60000000       7.20000000      58.93319400       60        1
Mn       0.00000000      10.80000000      10.80000000      54.93804400       61        5
Fe       0.00000000      12.60000000      12.60000000      55.84500000       62        4
Fe       1.80000000      10.80000000      12.60000000      55.84500000       63        4
Mn       1.80000000      12.60000000      10.80000000      54.93804400       64        5
Co       3.60000000       0.00000000       0.00000000      58.93319400       65        1
Co       3.60000000       1.80000000       1.80000000      58.93319400       66        1
Mn       5.40000000       0.00000000       1.80000000      54.93804400       67        5
Mn       5.40000000       1.80000000       0.00000000      54.93804400       68        5
Co       3.60000000       0.00000000       3.60000000      58.93319400       69        1
Fe       3.60000000       1.80000000       5.40000000      55.84500000       70        4
Co       5.40000000       0.00000000       5.40000000      58.93319400       71        1
Mn       5.40000000       1.80000000       3.60000000      54.93804400       72        5
Co       3.60000000       0.00000000       7.20000000      58.93319400       73        1
Fe       3.60000000       1.80000000       9.00000000      55.84500000       74        4
Co       5.40000000       0.00000000       9.00000000      58.93319400       75        1
Mn       5.40000000       1.80000000       7.20000000      54.93804400       76        5
Co       3.60000000       0.00000000      10.80000000      58.93319400       77        1
Mn       3.60000000       1.80000000      12.60000000      54.93804400       78        5
Mn       5.40000000       0.00000000      12.60000000      54.93804400       79        5
Fe       5.40000000       1.80000000      10.80000000      55.84500000       80        4
Fe       3.60000000       3.60000000       0.00000000      55.84500000       81        4
Cr       3.60000000       5.40000000       1.80000000      51.99610000       82        3
Fe       5.40000000       3.60000000       1.80000000      55.84500000       83        4
Ni       5.40000000       5.40000000       0.00000000      58.69340000       84        2
Fe       3.60000000       3.60000000       3.60000000      55.84500000       85        4
Ni       3.60000000       5.40000000       5.40000000      58.69340000       86        2
Co       5.40000000       3.60000000       5.40000000      58.93319400       87        1
Ni       5.40000000       5.40000000       3.60000000      58.69340000       88        2
Fe       3.60000000       3.60000000       7.20000000      55.84500000       89        4
Ni       3.60000000       5.40000000       9.00000000      58.69340000       90        2
Co       5.40000000       3.60000000       9.00000000      58.93319400       91        1
Co       5.40000000       5.40000000       7.20000000      58.93319400       92        1
Cr       3.60000000       3.60000000      10.80000000      51.99610000       93        3
Ni       3.60000000       5.40000000      12.60000000      58.69340000       94        2
Cr       5.40000000       3.60000000      12.60000000      51.99610000       95        3
Ni       5.40000000       5.40000000      10.80000000      58.69340000       96        2
Ni       3.60000000       7.20000000       0.00000000      58.69340000       97        2
Cr       3.60000000       9.00000000       1.80000000      51.99610000       98        3
Ni       5.40000000       7.20000000       1.80000000      58.69340000       99        2
Ni       5.40000000       9.00000000       0.00000000      58.69340000      100        2
Cr       3.60000000       7.20000000       3.60000000      51.99610000      101        3
Fe       3.60000000       9.00000000       5.40000000      55.84500000      102        4
Cr       5.40000000       7.20000000       5.40000000      51.99610000      103        3
Fe       5.40000000       9.00000000       3.60000000      55.84500000      104        4
Fe       3.60000000       7.20000000       7.20000000      55.84500000      105        4
Fe       3.60000000       9.00000000       9.00000000      55.84500000      106        4
Mn       5.40000000       7.20000000       9.00000000      54.93804400      107        5
Mn       5.40000000       9.00000000       7.20000000      54.93804400      108        5
Cr       3.60000000       7.20000000      10.80000000      51.99610000      109        3
Fe       3.60000000       9.00000000      12.60000000      55.84500000      110        4
Cr       5.40000000       7.20000000      12.60000000      51.99610000      111        3
Fe       5.40000000       9.00000000      10.80000000      55.84500000      112        4
Cr       3.60000000      10.80000000       0.00000000      51.99610000      113        3
Co       3.60000000      12.60000000       1.80000000      58.93319400      114        1
Co       5.40000000      10.80000000       1.80000000      58.93319400      115        1
Mn       5.40000000      12.60000000       0.00000000      54.93804400      116        5
Co       3.60000000      10.80000000       3.60000000      58.93319400      117        1
Mn       3.60000000      12.60000000       5.40000000      54.93804400      118        5
Co       5.40000000      10.80000000       5.40000000      58.93319400      119        1
Mn       5.40000000      12.60000000       3.60000000      54.93804400      120        5
Mn       3.60000000      10.80000000       7.20000000      54.93804400      121        5
Mn       3.60000000      12.60000000       9.00000000      54.93804400      122        5
Mn       5.40000000      10.80000000       9.00000000      54.93804400      123        5
Mn       5.40000000      12.60000000       7.20000000      54.93804400      124        5
Cr       3.60000000      10.80000000      10.80000000      51.99610000      125        3
Co       3.60000000      12.60000000      12.60000000      58.93319400      126        1
Fe       5.40000000      10.80000000      12.60000000      55.84500000      127        4
Mn       5.40000000      12.60000000      10.80000000      54.93804400      128        5
Mn       7.20000000       0.00000000       0.00000000      54.93804400      129        5
Co       7.20000000       1.80000000       1.80000000      58.93319400      130        1
Mn       9.00000000       0.00000000       1.80000000      54.93804400      131        5
Fe       9.00000000       1.80000000       0.00000000      55.84500000      132        4
Mn       7.20000000       0.00000000       3.60000000      54.93804400      133        5
Mn       7.20000000       1.80000000       5.40000000      54.93804400      134        5
Co       9.00000000       0.00000000       5.40000000      58.93319400      135        1
Mn       9.00000000       1.80000000       3.60000000      54.93804400      136        5
Mn       7.20000000       0.00000000       7.20000000      54.93804400      137        5
Mn       7.20000000       1.80000000       9.00000000      54.93804400      138        5
Mn       9.00000000       0.00000000       9.00000000      54.93804400      139        5
Mn       9.00000000       1.80000000       7.20000000      54.93804400      140        5
Co       7.20000000       0.00000000      10.80000000      58.93319400      141        1
Fe       7.20000000       1.80000000      12.60000000      55.84500000      142        4
Mn       9.00000000       0.00000000      12.60000000      54.93804400      143        5
Fe       9.00000000       1.80000000      10.80000000      55.84500000      144        4
Cr       7.20000000       3.60000000       0.00000000      51.99610000      145        3
Ni       7.20000000       5.40000000       1.80000000      58.69340000      146        2
Cr       9.00000000       3.60000000       1.80000000      51.99610000      147        3
Fe       9.00000000       5.40000000       0.00000000      55.84500000      148        4
Co       7.20000000       3.60000000       3.60000000      58.93319400      149        1
Fe       7.20000000       5.40000000       5.40000000      55.84500000      150        4
Mn       9.00000000       3.60000000       5.40000000      54.93804400      151        5
Ni       9.00000000       5.40000000       3.60000000      58.69340000      152        2
Mn       7.20000000       3.60000000       7.20000000      54.93804400      153        5
Co       7.20000000       5.40000000       9.00000000      58.93319400      154        1
Co       9.00000000       3.60000000       9.00000000      58.93319400      155        1
Co       9.00000000       5.40000000       7.20000000      58.93319400      156        1
Cr       7.20000000       3.60000000      10.80000000      51.99610000      157        3
Ni       7.20000000       5.40000000      12.60000000      58.69340000      158        2
Fe       9.00000000       3.60000000      12.60000000      55.84500000      159        4
Fe       9.00000000       5.40000000      10.80000000      55.84500000      160        4
Ni       7.20000000       7.20000000       0.00000000      58.69340000      161        2
Ni       7.20000000       9.00000000       1.80000000      58.69340000      162        2
Cr       9.00000000       7.20000000       1.80000000      51.99610000      163        3
Fe       9.00000000       9.00000000       0.00000000      55.84500000      164        4
Cr       7.20000000       7.20000000       3.60000000      51.99610000      165        3
Fe       7.20000000       9.00000000       5.40000000      55.84500000      166        4
Ni       9.00000000       7.20000000       5.40000000      58.69340000      167        2
Ni       9.00000000       9.00000000       3.60000000      58.69340000      168        2
Mn       7.20000000       7.20000000       7.20000000      54.93804400      169        5
Co       7.20000000       9.00000000       9.00000000      58.93319400      170        1
Mn       9.00000000       7.20000000       9.00000000      54.93804400      171        5
Mn       9.00000000       9.00000000       7.20000000      54.93804400      172        5
Fe       7.20000000       7.20000000      10.80000000      55.84500000      173        4
Co       7.20000000       9.00000000      12.60000000      58.93319400      174        1
Cr       9.00000000       7.20000000      12.60000000      51.99610000      175        3
Co       9.00000000       9.00000000      10.80000000      58.93319400      176        1
Mn       7.20000000      10.80000000       0.00000000      54.93804400      177        5
Mn       7.20000000      12.60000000       1.80000000      54.93804400      178        5
Co       9.00000000      10.80000000       1.80000000      58.93319400      179        1
Mn       9.00000000      12.60000000       0.00000000      54.93804400      180        5
Mn       7.20000000      10.80000000       3.60000000      54.93804400      181        5
Mn       7.20000000      12.60000000       5.40000000      54.93804400      182        5
Co       9.00000000      10.80000000       5.40000000      58.93319400      183        1
Mn       9.00000000      12.60000000       3.60000000      54.93804400      184        5
Mn       7.20000000      10.80000000       7.20000000      54.93804400      185        5
Co       7.20000000      12.60000000       9.00000000      58.93319400      186        1
Mn       9.00000000      10.80000000       9.00000000      54.93804400      187        5
Mn       9.00000000      12.60000000       7.20000000      54.93804400      188        5
Mn       7.20000000      10.80000000      10.80000000      54.93804400      189        5
Co       7.20000000      12.60000000      12.60000000      58.93319400      190        1
Mn       9.00000000      10.80000000      12.60000000      54.93804400      191        5
Mn       9.00000000      12.60000000      10.80000000      54.93804400      192        5
Co      10.80000000       0.00000000       0.00000000      58.93319400      193        1
Fe      10.80000000       1.80000000       1.80000000      55.84500000      194        4
Fe      12.60000000       0.00000000       1.80000000      55.84500000      195        4
Cr      12.60000000       1.80000000       0.00000000      51.99610000      196        3
Co      10.80000000       0.00000000       3.60000000      58.93319400      197        1
Mn      10.80000000       1.80000000       5.40000000      54.93804400      198        5
Fe      12.60000000       0.00000000       5.40000000      55.84500000      199        4
Cr      12.60000000       1.80000000       3.60000000      51.99610000      200        3
Mn      10.80000000       0.00000000       7.20000000      54.93804400      201        5
Co      10.80000000       1.80000000       9.00000000      58.93319400      202        1
Mn      12.60000000       0.00000000       9.00000000      54.93804400      203        5
Mn      12.60000000       1.80000000       7.20000000      54.93804400      204        5
Mn      10.80000000       0.00000000      10.80000000      54.93804400      205        5
Co      10.80000000       1.80000000      12.60000000      58.93319400      206        1
Co      12.60000000       0.00000000      12.60000000      58.93319400      207        1
Mn      12.60000000       1.80000000      10.80000000      54.93804400      208        5
Cr      10.80000000       3.60000000       0.00000000      51.99610000      209        3
Ni      10.80000000       5.40000000       1.80000000      58.69340000      210        2
Ni      12.60000000       3.60000000       1.80000000      58.69340000      211        2
Cr      12.60000000       5.40000000       0.00000000      51.99610000      212        3
Fe      10.80000000       3.60000000       3.60000000      55.84500000      213        4
Ni      10.80000000       5.40000000       5.40000000      58.69340000      214        2
Co      12.60000000       3.60000000       5.40000000      58.93319400      215        1
Cr      12.60000000       5.40000000       3.60000000      51.99610000      216        3
Mn      10.80000000       3.60000000       7.20000000      54.93804400      217        5
Fe      10.80000000       5.40000000       9.00000000      55.84500000      218        4
Fe      12.60000000       3.60000000       9.00000000      55.84500000      219        4
Cr      12.60000000       5.40000000       7.20000000      51.99610000      220        3
Cr      10.80000000       3.60000000      10.80000000      51.99610000      221        3
Cr      10.80000000       5.40000000      12.60000000      51.99610000      222        3
Fe      12.60000000       3.60000000      12.60000000      55.84500000      223        4
Fe      12.60000000       5.40000000      10.80000000      55.84500000      224        4
Fe      10.80000000       7.20000000       0.00000000      55.84500000      225        4
Ni      10.80000000       9.00000000       1.80000000      58.69340000      226        2
Ni      12.60000000       7.20000000       1.80000000      58.69340000      227        2
Cr      12.60000000       9.00000000       0.00000000      51.99610000      228        3
Cr      10.80000000       7.20000000       3.60000000      51.99610000      229        3
Ni      10.80000000       9.00000000       5.40000000      58.69340000      230        2
Ni      12.60000000       7.20000000       5.40000000      58.69340000      231        2
Cr      12.60000000       9.00000000       3.60000000      51.99610000      232        3
Fe      10.80000000       7.20000000       7.20000000      55.84500000      233        4
Mn      10.80000000       9.00000000       9.00000000      54.93804400      234        5
Fe      12.60000000       7.20000000       9.00000000      55.84500000      235        4
Cr      12.60000000       9.00000000       7.20000000      51.99610000      236        3
Fe      10.80000000       7.20000000      10.80000000      55.84500000      237        4
Fe      10.80000000       9.00000000      12.60000000      55.84500000      238        4
Fe      12.60000000       7.20000000      12.60000000      55.84500000      239        4
Co      12.60000000       9.00000000      10.80000000      58.93319400      240        1
Fe      10.80000000      10.80000000       0.00000000      55.84500000      241        4
Fe      10.80000000      12.60000000       1.80000000      55.84500000      242        4
Ni      12.60000000      10.80000000       1.80000000      58.69340000      243        2
Cr      12.60000000      12.60000000       0.00000000      51.99610000      244        3
Fe      10.80000000      10.80000000       3.60000000      55.84500000      245        4
Mn      10.80000000      12.60000000       5.40000000      54.93804400      246        5
Ni      12.60000000      10.80000000       5.40000000      58.69340000      247        2
Cr      12.60000000      12.60000000       3.60000000      51.99610000      248        3
Co      10.80000000      10.80000000       7.20000000      58.93319400      249        1
Mn      10.80000000      12.60000000       9.00000000      54.93804400      250        5
Co      12.60000000      10.80000000       9.00000000      58.93319400      251        1
Mn      12.60000000      12.60000000       7.20000000      54.93804400      252        5
Mn      10.80000000      10.80000000      10.80000000      54.93804400      253        5
Co      10.80000000      12.60000000      12.60000000      58.93319400      254        1
Ni      12.60000000      10.80000000      12.60000000      58.69340000      255        2
Mn      12.60000000      12.60000000      10.80000000      54.93804400      256        5
