256
Lattice="14.4 0.0 0.0 0.0 14.4 0.0 0.0 0.0 14.4" Properties=species:S:1:pos:R:3:masses:R:1:id:I:1:type:I:1 comment="(written by ASE)" energy=-1024.71123258561 pbc="T T T"
Mn       0.00000000       0.00000000       0.00000000      54.93804400        1        5
Ni       0.00000000       1.80000000       1.80000000      58.69340000        2        2
Cr       1.80000000       0.00000000       1.80000000      51.99610000        3        3
Cr       1.80000000       1.80000000       0.00000000      51.99610000        4        3
Mn       0.00000000       0.00000000       3.60000000      54.93804400        5        5
Cr       0.00000000       1.80000000       5.40000000      51.99610000        6        3
Cr       1.80000000       0.00000000       5.40000000      51.99610000        7        3
Mn       1.80000000       1.80000000       3.60000000      54.93804400        8        5
Mn       0.00000000       0.00000000       7.20000000      54.93804400        9        5
Cr       0.00000000       1.80000000       9.00000000      51.99610000       10        3
Co       1.80000000       0.00000000       9.00000000      58.93319400       11        1
Co       1.80000000       1.80000000       7.20000000      58.93319400       12        1
Mn       0.00000000       0.00000000      10.80000000      54.93804400       13        5
Cr       0.00000000       1.80000000      12.60000000      51.99610000       14        3
Cr       1.80000000       0.00000000      12.60000000      51.99610000       15        3
Cr       1.80000000       1.80000000      10.80000000      51.99610000       16        3
Ni       0.00000000       3.60000000       0.00000000      58.69340000       17        2
Ni       0.00000000       5.40000000       1.80000000      58.69340000       18        2
Ni       1.80000000       3.60000000       1.80000000      58.69340000       19        2
Mn       1.80000000       5.40000000       0.00000000      54.93804400       20        5
Ni       0.00000000       3.60000000       3.60000000      58.69340000       21        2
Mn       0.00000000       5.40000000       5.40000000      54.93804400       22        5
Fe       1.80000000       3.60000000       5.40000000      55.84500000       23        4
Cr       1.80000000       5.40000000       3.60000000      51.99610000       24        3
Cr       0.00000000       3.60000000       7.20000000      51.99610000       25        3
Co       0.00000000       5.40000000       9.00000000      58.93319400       26        1
Fe       1.80000000       3.60000000       9.00000000      55.84500000       27        4
Fe       1.80000000       5.40000000       7.20000000      55.84500000       28        4
Mn       0.00000000       3.60000000      10.80000000      54.93804400       29        5
Cr       0.00000000       5.40000000      12.60000000      51.99610000       30        3
Fe       1.80000000       3.60000000      12.60000000      55.84500000       31        4
Co       1.80000000       5.40000000      10.80000000      58.93319400       32        1
Cr       0.00000000       7.20000000       0.00000000      51.99610000       33        3
Cr       0.00000000       9.00000000       1.80000000      51.99610000       34        3
Cr       1.80000000       7.20000000       1.80000000      51.99610000       35        3
Cr       1.80000000       9.00000000       0.00000000      51.99610000       36        3
Mn       0.00000000       7.20000000       3.60000000      54.93804400       37        5
Co       0.00000000       9.00000000       5.40000000      58.93319400       38        1
Cr       1.80000000       7.20000000       5.40000000      51.99610000       39        3
Cr       1.80000000       9.00000000       3.60000000      51.99610000       40        3
Co       0.00000000       7.20000000       7.20000000      58.93319400       41        1
Co       0.00000000       9.00000000       9.00000000      58.93319400       42        1
Co       1.80000000       7.20000000       9.00000000      58.93319400       43        1
Fe       1.80000000       9.00000000       7.20000000      55.84500000       44        4
Co       0.00000000       7.20000000      10.80000000      58.93319400       45        1
Mn       0.00000000       9.00000000      12.60000000      54.93804400       46        5
Co       1.80000000       7.20000000      12.60000000      58.93319400       47        1
Co       1.80000000       9.00000000      10.80000000      58.93319400       48        1
Ni       0.00000000      10.80000000       0.00000000      58.69340000       49        2
Ni       0.00000000      12.60000000       1.80000000      58.69340000       50        2
Mn       1.80000000      10.80000000       1.80000000      54.93804400       51        5
Ni       1.80000000      12.60000000       0.00000000      58.69340000       52        2
Cr       0.00000000      10.80000000       3.60000000      51.99610000       53        3
Cr       0.00000000      12.60000000       5.40000000      51.99610000       54        3
Co       1.80000000      10.80000000       5.40000000      58.93319400       55        1
Fe       1.80000000      12.60000000       3.60000000      55.84500000       56        4
Co       0.00000000      10.80000000       7.20000000      58.93319400       57        1
Ni       0.00000000      12.60000000       9.00000000      58.69340000       58        2
Co       1.80000000      10.80000000       9.00000000      58.93319400       59        1
Co       1.80000000      12.60000000       7.20000000      58.93319400       60        1
Cr       0.00000000      10.80000000      10.80000000      51.99610000       61        3
Mn       0.00000000      12.60000000      12.60000000      54.93804400       62        5
Mn       1.80000000      10.80000000      12.60000000      54.93804400       63        5
Co       1.80000000      12.60000000      10.80000000      58.93319400       64        1
Mn       3.60000000       0.00000000       0.00000000      54.93804400       65        5
Cr       3.60000000       1.80000000       1.80000000      51.99610000       66        3
Fe       5.40000000       0.00000000       1.80000000      55.84500000       67        4
Mn       5.40000000       1.80000000       0.00000000      54.93804400       68        5
Mn       3.60000000       0.00000000       3.60000000      54.93804400       69        5
Co       3.60000000       1.80000000       5.40000000      58.93319400       70        1
Co       5.40000000       0.00000000       5.40000000      58.93319400       71        1
Ni       5.40000000       1.80000000       3.60000000      58.69340000       72        2
Co       3.60000000       0.00000000       7.20000000      58.93319400       73        1
Co       3.60000000       1.80000000       9.00000000      58.93319400       74        1
Co       5.40000000       0.00000000       9.00000000      58.93319400       75        1
Co       5.40000000       1.80000000       7.20000000      58.93319400       76        1
Co       3.60000000       0.00000000      10.80000000      58.93319400       77        1
Mn       3.60000000       1.80000000      12.60000000      54.93804400       78        5
Fe       5.40000000       0.00000000      12.60000000      55.84500000       79        4
Co       5.40000000       1.80000000      10.80000000      58.93319400       80        1
Cr       3.60000000       3.60000000       0.00000000      51.99610000       81        3
Ni       3.60000000       5.40000000       1.80000000      58.69340000       82        2
Ni       5.40000000       3.60000000       1.80000000      58.69340000       83        2
Ni       5.40000000       5.40000000       0.00000000      58.69340000       84        2
Ni       3.60000000       3.60000000       3.60000000      58.69340000       85        2
Mn       3.60000000       5.40000000       5.40000000      54.93804400       86        5
Mn       5.40000000       3.60000000       5.40000000      54.93804400       87        5
Ni       5.40000000       5.40000000       3.60000000      58.69340000       88        2
Fe       3.60000000       3.60000000       7.20000000      55.84500000       89        4
Co       3.60000000       5.40000000       9.00000000      58.93319400       90        1
Co       5.40000000       3.60000000       9.00000000      58.93319400       91        1
Cr       5.40000000       5.40000000       7.20000000      51.99610000       92        3
Co       3.60000000       3.60000000      10.80000000      58.93319400       93        1
Co       3.60000000       5.40000000      12.60000000      58.93319400       94        1
Fe       5.40000000       3.60000000      12.60000000      55.84500000       95        4
Fe       5.40000000       5.40000000      10.80000000      55.84500000       96        4
Mn       3.60000000       7.20000000       0.00000000      54.93804400       97        5
Cr       3.60000000       9.00000000       1.80000000      51.99610000       98        3
Ni       5.40000000       7.20000000       1.80000000      58.69340000       99        2
Fe       5.40000000       9.00000000       0.00000000      55.84500000      100        4
Mn       3.60000000       7.20000000       3.60000000      54.93804400      101        5
Fe       3.60000000       9.00000000       5.40000000      55.84500000      102        4
Ni       5.40000000       7.20000000       5.40000000      58.69340000      103        2
Mn       5.40000000       9.00000000       3.60000000      54.93804400      104        5
Mn       3.60000000       7.20000000       7.20000000      54.93804400      105        5
Co       3.60000000       9.00000000       9.00000000      58.93319400      106        1
Fe       5.40000000       7.20000000       9.00000000      55.84500000      107        4
Co       5.40000000       9.00000000       7.20000000      58.93319400      108        1
Co       3.60000000       7.20000000      10.80000000      58.93319400      109        1
Co       3.60000000       9.00000000      12.60000000      58.93319400      110        1
Mn       5.40000000       7.20000000      12.60000000      54.93804400      111        5
Fe       5.40000000       9.00000000      10.80000000      55.84500000      112        4
Cr       3.60000000      10.80000000       0.00000000      51.99610000      113        3
Cr       3.60000000      12.60000000       1.80000000      51.99610000      114        3
Fe       5.40000000      10.80000000       1.80000000      55.84500000      115        4
Fe       5.40000000      12.60000000       0.00000000      55.84500000      116        4
Fe       3.60000000      10.80000000       3.60000000      55.84500000      117        4
Co       3.60000000      12.60000000       5.40000000      58.93319400      118        1
Co       5.40000000      10.80000000       5.40000000      58.93319400      119        1
Fe       5.40000000      12.60000000       3.60000000      55.84500000      120        4
Co       3.60000000      10.80000000       7.20000000      58.93319400      121        1
Co       3.60000000      12.60000000       9.00000000      58.93319400      122        1
Co       5.40000000      10.80000000       9.00000000      58.93319400      123        1
Co       5.40000000      12.60000000       7.20000000      58.93319400      124        1
Co       3.60000000      10.80000000      10.80000000      58.93319400      125        1
Fe       3.60000000      12.60000000      12.60000000      55.84500000      126        4
Fe       5.40000000      10.80000000      12.60000000      55.84500000      127        4
Fe       5.40000000      12.60000000      10.80000000      55.84500000      128        4
Fe       7.20000000       0.00000000       0.00000000      55.84500000      129        4
Ni       7.20000000       1.80000000       1.80000000      58.69340000      130        2
Cr       9.00000000       0.00000000       1.80000000      51.99610000      131        3
Mn       9.00000000       1.80000000       0.00000000      54.93804400      132        5
Mn       7.20000000       0.00000000       3.60000000      54.93804400      133        5
Ni       7.20000000       1.80000000       5.40000000      58.69340000      134        2
Mn       9.00000000       0.00000000       5.40000000      54.93804400      135        5
Ni       9.00000000       1.80000000       3.60000000      58.69340000      136        2
Co       7.20000000       0.00000000       7.20000000      58.93319400      137        1
Fe       7.20000000       1.80000000       9.00000000      55.84500000      138        4
Fe       9.00000000       0.00000000       9.00000000      55.84500000      139        4
Cr       9.00000000       1.80000000       7.20000000      51.99610000      140        3
Fe       7.20000000       0.00000000      10.80000000      55.84500000      141        4
Fe       7.20000000       1.80000000      12.60000000      55.84500000      142        4
Fe       9.00000000       0.00000000      12.60000000      55.84500000      143        4
Mn       9.00000000       1.80000000      10.80000000      54.93804400      144        5
Cr       7.20000000       3.60000000       0.00000000      51.99610000      145        3
Ni       7.20000000       5.40000000       1.80000000      58.69340000      146        2
Ni       9.00000000       3.60000000       1.80000000      58.69340000      147        2
Cr       9.00000000       5.40000000       0.00000000      51.99610000      148        3
Ni       7.20000000       3.60000000       3.60000000      58.69340000      149        2
Ni       7.20000000       5.40000000       5.40000000      58.69340000      150        2
Ni       9.00000000       3.60000000       5.40000000      58.69340000      151        2
Ni       9.00000000       5.40000000       3.60000000      58.69340000      152        2
Mn       7.20000000       3.60000000       7.20000000      54.93804400      153        5
Fe       7.20000000       5.40000000       9.00000000      55.84500000      154        4
Cr       9.00000000       3.60000000       9.00000000      51.99610000      155        3
Cr       9.00000000       5.40000000       7.20000000      51.99610000      156        3
Fe       7.20000000       3.60000000      10.80000000      55.84500000      157        4
Mn       7.20000000       5.40000000      12.60000000      54.93804400      158        5
Cr       9.00000000       3.60000000      12.60000000      51.99610000      159        3
Mn       9.00000000       5.40000000      10.80000000      54.93804400      160        5
Cr       7.20000000       7.20000000       0.00000000      51.99610000      161        3
Cr       7.20000000       9.00000000       1.80000000      51.99610000      162        3
Mn       9.00000000       7.20000000       1.80000000      54.93804400      163        5
Mn       9.00000000       9.00000000       0.00000000      54.93804400      164        5
Ni       7.20000000       7.20000000       3.60000000      58.69340000      165        2
Mn       7.20000000       9.00000000       5.40000000      54.93804400      166        5
Ni       9.00000000       7.20000000       5.40000000      58.69340000      167        2
Fe       9.00000000       9.00000000       3.60000000      55.84500000      168        4
Mn       7.20000000       7.20000000       7.20000000      54.93804400      169        5
Co       7.20000000       9.00000000       9.00000000      58.93319400      170        1
Fe       9.00000000       7.20000000       9.00000000      55.84500000      171        4
Cr       9.00000000       9.00000000       7.20000000      51.99610000      172        3
Fe       7.20000000       7.20000000      10.80000000      55.84500000      173        4
Fe       7.20000000       9.00000000      12.60000000      55.84500000      174        4
Mn       9.00000000       7.20000000      12.60000000      54.93804400      175        5
Co       9.00000000       9.00000000      10.80000000      58.93319400      176        1
Fe       7.20000000      10.80000000       0.00000000      55.84500000      177        4
Fe       7.20000000      12.60000000       1.80000000      55.84500000      178        4
Co       9.00000000      10.80000000       1.80000000      58.93319400      179        1
Co       9.00000000      12.60000000       0.00000000      58.93319400      180        1
Mn       7.20000000      10.80000000       3.60000000      54.93804400      181        5
Fe       7.20000000      12.60000000       5.40000000      55.84500000      182        4
Fe       9.00000000      10.80000000       5.40000000      55.84500000      183        4
Fe       9.00000000      12.60000000       3.60000000      55.84500000      184        4
Co       7.20000000      10.80000000       7.20000000      58.93319400      185        1
Co       7.20000000      12.60000000       9.00000000      58.93319400      186        1
Co       9.00000000      10.80000000       9.00000000      58.93319400      187        1
Fe       9.00000000      12.60000000       7.20000000      55.84500000      188        4
Fe       7.20000000      10.80000000      10.80000000      55.84500000      189        4
Co       7.20000000      12.60000000      12.60000000      58.93319400      190        1
Fe       9.00000000      10.80000000      12.60000000      55.84500000      191        4
Mn       9.00000000      12.60000000      10.80000000      54.93804400      192        5
Mn      10.80000000       0.00000000       0.00000000      54.93804400      193        5
Ni      10.80000000       1.80000000       1.80000000      58.69340000      194        2
Ni      12.60000000       0.00000000       1.80000000      58.69340000      195        2
Ni      12.60000000       1.80000000       0.00000000      58.69340000      196        2
Ni      10.80000000       0.00000000       3.60000000      58.69340000      197        2
Ni      10.80000000       1.80000000       5.40000000      58.69340000      198        2
Ni      12.60000000       0.00000000       5.40000000      58.69340000      199        2
Ni      12.60000000       1.80000000       3.60000000      58.69340000      200        2
Mn      10.80000000       0.00000000       7.20000000      54.93804400      201        5
Cr      10.80000000       1.80000000       9.00000000      51.99610000      202        3
Cr      12.60000000       0.00000000       9.00000000      51.99610000      203        3
Cr      12.60000000       1.80000000       7.20000000      51.99610000      204        3
Mn      10.80000000       0.00000000      10.80000000      54.93804400      205        5
Mn      10.80000000       1.80000000      12.60000000      54.93804400      206        5
Ni      12.60000000       0.00000000      12.60000000      58.69340000      207        2
Cr      12.60000000       1.80000000      10.80000000      51.99610000      208        3
Mn      10.80000000       3.60000000       0.00000000      54.93804400      209        5
Ni      10.80000000       5.40000000       1.80000000      58.69340000      210        2
Mn      12.60000000       3.60000000       1.80000000      54.93804400      211        5
Mn      12.60000000       5.40000000       0.00000000      54.93804400      212        5
Ni      10.80000000       3.60000000       3.60000000      58.69340000      213        2
Mn      10.80000000       5.40000000       5.40000000      54.93804400      214        5
Mn      12.60000000       3.60000000       5.40000000      54.93804400      215        5
Cr      12.60000000       5.40000000       3.60000000      51.99610000      216        3
Mn      10.80000000       3.60000000       7.20000000      54.93804400      217        5
Mn      10.80000000       5.40000000       9.00000000      54.93804400      218        5
Cr      12.60000000       3.60000000       9.00000000      51.99610000      219        3
Fe      12.60000000       5.40000000       7.20000000      55.84500000      220        4
Cr      10.80000000       3.60000000      10.80000000      51.99610000      221        3
Fe      10.80000000       5.40000000      12.60000000      55.84500000      222        4
Mn      12.60000000       3.60000000      12.60000000      54.93804400      223        5
Fe      12.60000000       5.40000000      10.80000000      55.84500000      224        4
Fe      10.80000000       7.20000000       0.00000000      55.84500000      225        4
Fe      10.80000000       9.00000000       1.80000000      55.84500000      226        4
Mn      12.60000000       7.20000000       1.80000000      54.93804400      227        5
Fe      12.60000000       9.00000000       0.00000000      55.84500000      228        4
Mn      10.80000000       7.20000000       3.60000000      54.93804400      229        5
Mn      10.80000000       9.00000000       5.40000000      54.93804400      230        5
Fe      12.60000000       7.20000000       5.40000000      55.84500000      231        4
Cr      12.60000000       9.00000000       3.60000000      51.99610000      232        3
Cr      10.80000000       7.20000000       7.20000000      51.99610000      233        3
Mn      10.80000000       9.00000000       9.00000000      54.93804400      234        5
Fe      12.60000000       7.20000000       9.00000000      55.84500000      235        4
Fe      12.60000000       9.00000000       7.20000000      55.84500000      236        4
Fe      10.80000000       7.20000000      10.80000000      55.84500000      237        4
Fe      10.80000000       9.00000000      12.60000000      55.84500000      238        4
Mn      12.60000000       7.20000000      12.60000000      54.93804400      239        5
Mn      12.60000000       9.00000000      10.80000000      54.93804400      240        5
Co      10.80000000      10.80000000       0.00000000      58.93319400      241        1
Mn      10.80000000      12.60000000       1.80000000      54.93804400      242        5
Mn      12.60000000      10.80000000       1.80000000      54.93804400      243        5
Ni      12.60000000      12.60000000       0.00000000      58.69340000      244        2
Cr      10.80000000      10.80000000       3.60000000      51.99610000      245        3
Mn      10.80000000      12.60000000       5.40000000      54.93804400      246        5
Cr      12.60000000      10.80000000       5.40000000      51.99610000      247        3
Mn      12.60000000      12.60000000       3.60000000      54.93804400      248        5
Mn      10.80000000      10.80000000       7.20000000      54.93804400      249        5
Ni      10.80000000      12.60000000       9.00000000      58.69340000      250        2
Ni      12.60000000      10.80000000       9.00000000      58.69340000      251        2
Ni      12.60000000      12.60000000       7.20000000      58.69340000      252        2
Ni      10.80000000      10.80000000      10.80000000      58.69340000      253        2
Ni      10.80000000      12.60000000      12.60000000      58.69340000      254        2
Ni      12.60000000      10.80000000      12.60000000      58.69340000      255        2
Ni      12.60000000      12.60000000      10.80000000      58.69340000      256        2
