256
Lattice="14.4 0.0 0.0 0.0 14.4 0.0 0.0 0.0 14.4" Properties=species:S:1:pos:R:3:masses:R:1:id:I:1:type:I:1 comment="(written by ASE)" energy=-1025.15630193576 pbc="T T T"
Mn       0.00000000       0.00000000       0.00000000      54.93804400        1        5
Co       0.00000000       1.80000000       1.80000000      58.93319400        2        1
Fe       1.80000000       0.00000000       1.80000000      55.84500000        3        4
Mn       1.80000000       1.80000000       0.00000000      54.93804400        4        5
Mn       0.00000000       0.00000000       3.60000000      54.93804400        5        5
Fe       0.00000000       1.80000000       5.40000000      55.84500000        6        4
Fe       1.80000000       0.00000000       5.40000000      55.84500000        7        4
Cr       1.80000000       1.80000000       3.60000000      51.99610000        8        3
Co       0.00000000       0.00000000       7.20000000      58.93319400        9        1
Fe       0.00000000       1.80000000       9.00000000      55.84500000       10        4
Fe       1.80000000       0.00000000       9.00000000      55.84500000       11        4
Mn       1.80000000       1.80000000       7.20000000      54.93804400       12        5
Mn       0.00000000       0.00000000      10.80000000      54.93804400       13        5
Fe       0.00000000       1.80000000      12.60000000      55.84500000       14        4
Co       1.80000000       0.00000000      12.60000000      58.93319400       15        1
Mn       1.80000000       1.80000000      10.80000000      54.93804400       16        5
Mn       0.00000000       3.60000000       0.00000000      54.93804400       17        5
Cr       0.00000000       5.40000000       1.80000000      51.99610000       18        3
Cr       1.80000000       3.60000000       1.80000000      51.99610000       19        3
Fe       1.80000000       5.40000000       0.00000000      55.84500000       20        4
Cr       0.00000000       3.60000000       3.60000000      51.99610000       21        3
Cr       0.00000000       5.40000000       5.40000000      51.99610000       22        3
Cr       1.80000000       3.60000000       5.40000000      51.99610000       23        3
Cr       1.80000000       5.40000000       3.60000000      51.99610000       24        3
Mn       0.00000000       3.60000000       7.20000000      54.93804400       25        5
Mn       0.00000000       5.40000000       9.00000000      54.93804400       26        5
Co       1.80000000       3.60000000       9.00000000      58.93319400       27        1
Cr       1.80000000       5.40000000       7.20000000      51.99610000       28        3
Mn       0.00000000       3.60000000      10.80000000      54.93804400       29        5
Fe       0.00000000       5.40000000      12.60000000      55.84500000       30        4
Co       1.80000000       3.60000000      12.60000000      58.93319400       31        1
Fe       1.80000000       5.40000000      10.80000000      55.84500000       32        4
Co       0.00000000       7.20000000       0.00000000      58.93319400       33        1
Mn       0.00000000       9.00000000       1.80000000      54.93804400       34        5
Cr       1.80000000       7.20000000       1.80000000      51.99610000       35        3
Fe       1.80000000       9.00000000       0.00000000      55.84500000       36        4
Co       0.00000000       7.20000000       3.60000000      58.93319400       37        1
Co       0.00000000       9.00000000       5.40000000      58.93319400       38        1
Cr       1.80000000       7.20000000       5.40000000      51.99610000       39        3
Co       1.80000000       9.00000000       3.60000000      58.93319400       40        1
Cr       0.00000000       7.20000000       7.20000000      51.99610000       41        3
Co       0.00000000       9.00000000       9.00000000      58.93319400       42        1
Mn       1.80000000       7.20000000       9.00000000      54.93804400       43        5
Mn       1.80000000       9.00000000       7.20000000      54.93804400       44        5
Co       0.00000000       7.20000000      10.80000000      58.93319400       45        1
Fe       0.00000000       9.00000000      12.60000000      55.84500000       46        4
Mn       1.80000000       7.20000000      12.60000000      54.93804400       47        5
Fe       1.80000000       9.00000000      10.80000000      55.84500000       48        4
Mn       0.00000000      10.80000000       0.00000000      54.93804400       49        5
Mn       0.00000000      12.60000000       1.80000000      54.93804400       50        5
Fe       1.80000000      10.80000000       1.80000000      55.84500000       51        4
Fe       1.80000000      12.60000000       0.00000000      55.84500000       52        4
Fe       0.00000000      10.80000000       3.60000000      55.84500000       53        4
Mn       0.00000000      12.60000000       5.40000000      54.93804400       54        5
Fe       1.80000000      10.80000000       5.40000000      55.84500000       55        4
Co       1.80000000      12.60000000       3.60000000      58.93319400       56        1
Mn       0.00000000      10.80000000       7.20000000      54.93804400       57        5
Ni       0.00000000      12.60000000       9.00000000      58.69340000       58        2
Fe       1.80000000      10.80000000       9.00000000      55.84500000       59        4
Fe       1.80000000      12.60000000       7.20000000      55.84500000       60        4
Mn       0.00000000      10.80000000      10.80000000      54.93804400       61        5
Ni       0.00000000      12.60000000      12.60000000      58.69340000       62        2
Co       1.80000000      10.80000000      12.60000000      58.93319400       63        1
Co       1.80000000      12.60000000      10.80000000      58.93319400       64        1
Mn       3.60000000       0.00000000       0.00000000      54.93804400       65        5
Co       3.60000000       1.80000000       1.80000000      58.93319400       66        1
Fe       5.40000000       0.00000000       1.80000000      55.84500000       67        4
Ni       5.40000000       1.80000000       0.00000000      58.69340000       68        2
Mn       3.60000000       0.00000000       3.60000000      54.93804400       69        5
Fe       3.60000000       1.80000000       5.40000000      55.84500000       70        4
Co       5.40000000       0.00000000       5.40000000      58.93319400       71        1
Cr       5.40000000       1.80000000       3.60000000      51.99610000       72        3
Co       3.60000000       0.00000000       7.20000000      58.93319400       73        1
Fe       3.60000000       1.80000000       9.00000000      55.84500000       74        4
Mn       5.40000000       0.00000000       9.00000000      54.93804400       75        5
Mn       5.40000000       1.80000000       7.20000000      54.93804400       76        5
Co       3.60000000       0.00000000      10.80000000      58.93319400       77        1
Fe       3.60000000       1.80000000      12.60000000      55.84500000       78        4
Mn       5.40000000       0.00000000      12.60000000      54.93804400       79        5
Co       5.40000000       1.80000000      10.80000000      58.93319400       80        1
Mn       3.60000000       3.60000000       0.00000000      54.93804400       81        5
Cr       3.60000000       5.40000000       1.80000000      51.99610000       82        3
Ni       5.40000000       3.60000000       1.80000000      58.69340000       83        2
Ni       5.40000000       5.40000000       0.00000000      58.69340000       84        2
Cr       3.60000000       3.60000000       3.60000000      51.99610000       85        3
Cr       3.60000000       5.40000000       5.40000000      51.99610000       86        3
Cr       5.40000000       3.60000000       5.40000000      51.99610000       87        3
Cr       5.40000000       5.40000000       3.60000000      51.99610000       88        3
Co       3.60000000       3.60000000       7.20000000      58.93319400       89        1
Fe       3.60000000       5.40000000       9.00000000      55.84500000       90        4
Mn       5.40000000       3.60000000       9.00000000      54.93804400       91        5
Cr       5.40000000       5.40000000       7.20000000      51.99610000       92        3
Mn       3.60000000       3.60000000      10.80000000      54.93804400       93        5
Co       3.60000000       5.40000000      12.60000000      58.93319400       94        1
Fe       5.40000000       3.60000000      12.60000000      55.84500000       95        4
Mn       5.40000000       5.40000000      10.80000000      54.93804400       96        5
Mn       3.60000000       7.20000000       0.00000000      54.93804400       97        5
Fe       3.60000000       9.00000000       1.80000000      55.84500000       98        4
Ni       5.40000000       7.20000000       1.80000000      58.69340000       99        2
Ni       5.40000000       9.00000000       0.00000000      58.69340000      100        2
Cr       3.60000000       7.20000000       3.60000000      51.99610000      101        3
Mn       3.60000000       9.00000000       5.40000000      54.93804400      102        5
Cr       5.40000000       7.20000000       5.40000000      51.99610000      103        3
Co       5.40000000       9.00000000       3.60000000      58.93319400      104        1
Co       3.60000000       7.20000000       7.20000000      58.93319400      105        1
Co       3.60000000       9.00000000       9.00000000      58.93319400      106        1
Cr       5.40000000       7.20000000       9.00000000      51.99610000      107        3
Fe       5.40000000       9.00000000       7.20000000      55.84500000      108        4
Co       3.60000000       7.20000000      10.80000000      58.93319400      109        1
Mn       3.60000000       9.00000000      12.60000000      54.93804400      110        5
Cr       5.40000000       7.20000000      12.60000000      51.99610000      111        3
Cr       5.40000000       9.00000000      10.80000000      51.99610000      112        3
Mn       3.60000000      10.80000000       0.00000000      54.93804400      113        5
Co       3.60000000      12.60000000       1.80000000      58.93319400      114        1
Mn       5.40000000      10.80000000       1.80000000      54.93804400      115        5
Fe       5.40000000      12.60000000       0.00000000      55.84500000      116        4
Mn       3.60000000      10.80000000       3.60000000      54.93804400      117        5
Mn       3.60000000      12.60000000       5.40000000      54.93804400      118        5
Mn       5.40000000      10.80000000       5.40000000      54.93804400      119        5
Fe       5.40000000      12.60000000       3.60000000      55.84500000      120        4
Co       3.60000000      10.80000000       7.20000000      58.93319400      121        1
Mn       3.60000000      12.60000000       9.00000000      54.93804400      122        5
Mn       5.40000000      10.80000000       9.00000000      54.93804400      123        5
Fe       5.40000000      12.60000000       7.20000000      55.84500000      124        4
Mn       3.60000000      10.80000000      10.80000000      54.93804400      125        5
Mn       3.60000000      12.60000000      12.60000000      54.93804400      126        5
Co       5.40000000      10.80000000      12.60000000      58.93319400      127        1
Fe       5.40000000      12.60000000      10.80000000      55.84500000      128        4
Mn       7.20000000       0.00000000       0.00000000      54.93804400      129        5
Ni       7.20000000       1.80000000       1.80000000      58.69340000      130        2
Ni       9.00000000       0.00000000       1.80000000      58.69340000      131        2
Ni       9.00000000       1.80000000       0.00000000      58.69340000      132        2
Ni       7.20000000       0.00000000       3.60000000      58.69340000      133        2
Fe       7.20000000       1.80000000       5.40000000      55.84500000      134        4
Mn       9.00000000       0.00000000       5.40000000      54.93804400      135        5
Mn       9.00000000       1.80000000       3.60000000      54.93804400      136        5
Co       7.20000000       0.00000000       7.20000000      58.93319400      137        1
Fe       7.20000000       1.80000000       9.00000000      55.84500000      138        4
Ni       9.00000000       0.00000000       9.00000000      58.69340000      139        2
Fe       9.00000000       1.80000000       7.20000000      55.84500000      140        4
Co       7.20000000       0.00000000      10.80000000      58.93319400      141        1
Fe       7.20000000       1.80000000      12.60000000      55.84500000      142        4
Ni       9.00000000       0.00000000      12.60000000      58.69340000      143        2
Ni       9.00000000       1.80000000      10.80000000      58.69340000      144        2
Ni       7.20000000       3.60000000       0.00000000      58.69340000      145        2
Ni       7.20000000       5.40000000       1.80000000      58.69340000      146        2
Ni       9.00000000       3.60000000       1.80000000      58.69340000      147        2
Ni       9.00000000       5.40000000       0.00000000      58.69340000      148        2
Cr       7.20000000       3.60000000       3.60000000      51.99610000      149        3
Cr       7.20000000       5.40000000       5.40000000      51.99610000      150        3
Co       9.00000000       3.60000000       5.40000000      58.93319400      151        1
Cr       9.00000000       5.40000000       3.60000000      51.99610000      152        3
Co       7.20000000       3.60000000       7.20000000      58.93319400      153        1
Cr       7.20000000       5.40000000       9.00000000      51.99610000      154        3
Cr       9.00000000       3.60000000       9.00000000      51.99610000      155        3
Cr       9.00000000       5.40000000       7.20000000      51.99610000      156        3
Co       7.20000000       3.60000000      10.80000000      58.93319400      157        1
Ni       7.20000000       5.40000000      12.60000000      58.69340000      158        2
Cr       9.00000000       3.60000000      12.60000000      51.99610000      159        3
Mn       9.00000000       5.40000000      10.80000000      54.93804400      160        5
Ni       7.20000000       7.20000000       0.00000000      58.69340000      161        2
Ni       7.20000000       9.00000000       1.80000000      58.69340000      162        2
Ni       9.00000000       7.20000000       1.80000000      58.69340000      163        2
Ni       9.00000000       9.00000000       0.00000000      58.69340000      164        2
Cr       7.20000000       7.20000000       3.60000000      51.99610000      165        3
Cr       7.20000000       9.00000000       5.40000000      51.99610000      166        3
Cr       9.00000000       7.20000000       5.40000000      51.99610000      167        3
Mn       9.00000000       9.00000000       3.60000000      54.93804400      168        5
Cr       7.20000000       7.20000000       7.20000000      51.99610000      169        3
Cr       7.20000000       9.00000000       9.00000000      51.99610000      170        3
Cr       9.00000000       7.20000000       9.00000000      51.99610000      171        3
Cr       9.00000000       9.00000000       7.20000000      51.99610000      172        3
Cr       7.20000000       7.20000000      10.80000000      51.99610000      173        3
Cr       7.20000000       9.00000000      12.60000000      51.99610000      174        3
Ni       9.00000000       7.20000000      12.60000000      58.69340000      175        2
Ni       9.00000000       9.00000000      10.80000000      58.69340000      176        2
Mn       7.20000000      10.80000000       0.00000000      54.93804400      177        5
Co       7.20000000      12.60000000       1.80000000      58.93319400      178        1
Fe       9.00000000      10.80000000       1.80000000      55.84500000      179        4
Co       9.00000000      12.60000000       0.00000000      58.93319400      180        1
Co       7.20000000      10.80000000       3.60000000      58.93319400      181        1
Mn       7.20000000      12.60000000       5.40000000      54.93804400      182        5
Fe       9.00000000      10.80000000       5.40000000      55.84500000      183        4
Fe       9.00000000      12.60000000       3.60000000      55.84500000      184        4
Co       7.20000000      10.80000000       7.20000000      58.93319400      185        1
Ni       7.20000000      12.60000000       9.00000000      58.69340000      186        2
Ni       9.00000000      10.80000000       9.00000000      58.69340000      187        2
Ni       9.00000000      12.60000000       7.20000000      58.69340000      188        2
Co       7.20000000      10.80000000      10.80000000      58.93319400      189        1
Fe       7.20000000      12.60000000      12.60000000      55.84500000      190        4
Fe       9.00000000      10.80000000      12.60000000      55.84500000      191        4
Cr       9.00000000      12.60000000      10.80000000      51.99610000      192        3
Ni      10.80000000       0.00000000       0.00000000      58.69340000      193        2
Mn      10.80000000       1.80000000       1.80000000      54.93804400      194        5
Co      12.60000000       0.00000000       1.80000000      58.93319400      195        1
Cr      12.60000000       1.80000000       0.00000000      51.99610000      196        3
Co      10.80000000       0.00000000       3.60000000      58.93319400      197        1
Fe      10.80000000       1.80000000       5.40000000      55.84500000      198        4
Fe      12.60000000       0.00000000       5.40000000      55.84500000      199        4
Mn      12.60000000       1.80000000       3.60000000      54.93804400      200        5
Ni      10.80000000       0.00000000       7.20000000      58.69340000      201        2
Ni      10.80000000       1.80000000       9.00000000      58.69340000      202        2
Ni      12.60000000       0.00000000       9.00000000      58.69340000      203        2
Mn      12.60000000       1.80000000       7.20000000      54.93804400      204        5
Ni      10.80000000       0.00000000      10.80000000      58.69340000      205        2
Ni      10.80000000       1.80000000      12.60000000      58.69340000      206        2
Ni      12.60000000       0.00000000      12.60000000      58.69340000      207        2
Ni      12.60000000       1.80000000      10.80000000      58.69340000      208        2
Ni      10.80000000       3.60000000       0.00000000      58.69340000      209        2
Cr      10.80000000       5.40000000       1.80000000      51.99610000      210        3
Cr      12.60000000       3.60000000       1.80000000      51.99610000      211        3
Cr      12.60000000       5.40000000       0.00000000      51.99610000      212        3
Fe      10.80000000       3.60000000       3.60000000      55.84500000      213        4
Mn      10.80000000       5.40000000       5.40000000      54.93804400      214        5
Co      12.60000000       3.60000000       5.40000000      58.93319400      215        1
Cr      12.60000000       5.40000000       3.60000000      51.99610000      216        3
Mn      10.80000000       3.60000000       7.20000000      54.93804400      217        5
Fe      10.80000000       5.40000000       9.00000000      55.84500000      218        4
Fe      12.60000000       3.60000000       9.00000000      55.84500000      219        4
Co      12.60000000       5.40000000       7.20000000      58.93319400      220        1
Co      10.80000000       3.60000000      10.80000000      58.93319400      221        1
Mn      10.80000000       5.40000000      12.60000000      54.93804400      222        5
Fe      12.60000000       3.60000000      12.60000000      55.84500000      223        4
Co      12.60000000       5.40000000      10.80000000      58.93319400      224        1
Cr      10.80000000       7.20000000       0.00000000      51.99610000      225        3
Fe      10.80000000       9.00000000       1.80000000      55.84500000      226        4
Cr      12.60000000       7.20000000       1.80000000      51.99610000      227        3
Co      12.60000000       9.00000000       0.00000000      58.93319400      228        1
Co      10.80000000       7.20000000       3.60000000      58.93319400      229        1
Fe      10.80000000       9.00000000       5.40000000      55.84500000      230        4
Fe      12.60000000       7.20000000       5.40000000      55.84500000      231        4
Mn      12.60000000       9.00000000       3.60000000      54.93804400      232        5
Mn      10.80000000       7.20000000       7.20000000      54.93804400      233        5
Ni      10.80000000       9.00000000       9.00000000      58.69340000      234        2
Mn      12.60000000       7.20000000       9.00000000      54.93804400      235        5
Fe      12.60000000       9.00000000       7.20000000      55.84500000      236        4
Co      10.80000000       7.20000000      10.80000000      58.93319400      237        1
Fe      10.80000000       9.00000000      12.60000000      55.84500000      238        4
Mn      12.60000000       7.20000000      12.60000000      54.93804400      239        5
Fe      12.60000000       9.00000000      10.80000000      55.84500000      240        4
Mn      10.80000000      10.80000000       0.00000000      54.93804400      241        5
Mn      10.80000000      12.60000000       1.80000000      54.93804400      242        5
Co      12.60000000      10.80000000       1.80000000      58.93319400      243        1
Fe      12.60000000      12.60000000       0.00000000      55.84500000      244        4
Mn      10.80000000      10.80000000       3.60000000      54.93804400      245        5
Mn      10.80000000      12.60000000       5.40000000      54.93804400      246        5
Co      12.60000000      10.80000000       5.40000000      58.93319400      247        1
Fe      12.60000000      12.60000000       3.60000000      55.84500000      248        4
Ni      10.80000000      10.80000000       7.20000000      58.69340000      249        2
Ni      10.80000000      12.60000000       9.00000000      58.69340000      250        2
Ni      12.60000000      10.80000000       9.00000000      58.69340000      251        2
Ni      12.60000000      12.60000000       7.20000000      58.69340000      252        2
Ni      10.80000000      10.80000000      10.80000000      58.69340000      253        2
Ni      10.80000000      12.60000000      12.60000000      58.69340000      254        2
Ni      12.60000000      10.80000000      12.60000000      58.69340000      255        2
Ni      12.60000000      12.60000000      10.80000000      58.69340000      256        2
