256
Lattice="14.4 0.0 0.0 0.0 14.4 0.0 0.0 0.0 14.4" Properties=species:S:1:pos:R:3:masses:R:1:id:I:1:type:I:1 comment="(written by ASE)" energy=-1019.28361184169 pbc="T T T"
Ni       0.00000000       0.00000000       0.00000000      58.69340000        1        2
Ni       0.00000000       1.80000000       1.80000000      58.69340000        2        2
Cr       1.80000000       0.00000000       1.80000000      51.99610000        3        3
Cr       1.80000000       1.80000000       0.00000000      51.99610000        4        3
Ni       0.00000000       0.00000000       3.60000000      58.69340000        5        2
Co       0.00000000       1.80000000       5.40000000      58.93319400        6        1
Co       1.80000000       0.00000000       5.40000000      58.93319400        7        1
Co       1.80000000       1.80000000       3.60000000      58.93319400        8        1
Co       0.00000000       0.00000000       7.20000000      58.93319400        9        1
Co       0.00000000       1.80000000       9.00000000      58.93319400       10        1
Co       1.80000000       0.00000000       9.00000000      58.93319400       11        1
Co       1.80000000       1.80000000       7.20000000      58.93319400       12        1
Co       0.00000000       0.00000000      10.80000000      58.93319400       13        1
Cr       0.00000000       1.80000000      12.60000000      51.99610000       14        3
Ni       1.80000000       0.00000000      12.60000000      58.69340000       15        2
Co       1.80000000       1.80000000      10.80000000      58.93319400       16        1
Ni       0.00000000       3.60000000       0.00000000      58.69340000       17        2
Cr       0.00000000       5.40000000       1.80000000      51.99610000       18        3
Mn       1.80000000       3.60000000       1.80000000      54.93804400       19        5
Mn       1.80000000       5.40000000       0.00000000      54.93804400       20        5
Ni       0.00000000       3.60000000       3.60000000      58.69340000       21        2
Ni       0.00000000       5.40000000       5.40000000      58.69340000       22        2
Mn       1.80000000       3.60000000       5.40000000      54.93804400       23        5
Ni       1.80000000       5.40000000       3.60000000      58.69340000       24        2
Co       0.00000000       3.60000000       7.20000000      58.93319400       25        1
Co       0.00000000       5.40000000       9.00000000      58.93319400       26        1
Co       1.80000000       3.60000000       9.00000000      58.93319400       27        1
Mn       1.80000000       5.40000000       7.20000000      54.93804400       28        5
Co       0.00000000       3.60000000      10.80000000      58.93319400       29        1
Co       0.00000000       5.40000000      12.60000000      58.93319400       30        1
Ni       1.80000000       3.60000000      12.60000000      58.69340000       31        2
Co       1.80000000       5.40000000      10.80000000      58.93319400       32        1
Fe       0.00000000       7.20000000       0.00000000      55.84500000       33        4
Fe       0.00000000       9.00000000       1.80000000      55.84500000       34        4
Mn       1.80000000       7.20000000       1.80000000      54.93804400       35        5
Fe       1.80000000       9.00000000       0.00000000      55.84500000       36        4
Cr       0.00000000       7.20000000       3.60000000      51.99610000       37        3
Ni       0.00000000       9.00000000       5.40000000      58.69340000       38        2
Ni       1.80000000       7.20000000       5.40000000      58.69340000       39        2
Cr       1.80000000       9.00000000       3.60000000      51.99610000       40        3
Ni       0.00000000       7.20000000       7.20000000      58.69340000       41        2
Co       0.00000000       9.00000000       9.00000000      58.93319400       42        1
Co       1.80000000       7.20000000       9.00000000      58.93319400       43        1
Co       1.80000000       9.00000000       7.20000000      58.93319400       44        1
Co       0.00000000       7.20000000      10.80000000      58.93319400       45        1
Fe       0.00000000       9.00000000      12.60000000      55.84500000       46        4
Fe       1.80000000       7.20000000      12.60000000      55.84500000       47        4
Fe       1.80000000       9.00000000      10.80000000      55.84500000       48        4
Fe       0.00000000      10.80000000       0.00000000      55.84500000       49        4
Ni       0.00000000      12.60000000       1.80000000      58.69340000       50        2
Mn       1.80000000      10.80000000       1.80000000      54.93804400       51        5
Cr       1.80000000      12.60000000       0.00000000      51.99610000       52        3
Ni       0.00000000      10.80000000       3.60000000      58.69340000       53        2
Co       0.00000000      12.60000000       5.40000000      58.93319400       54        1
Ni       1.80000000      10.80000000       5.40000000      58.69340000       55        2
Mn       1.80000000      12.60000000       3.60000000      54.93804400       56        5
Co       0.00000000      10.80000000       7.20000000      58.93319400       57        1
Co       0.00000000      12.60000000       9.00000000      58.93319400       58        1
Co       1.80000000      10.80000000       9.00000000      58.93319400       59        1
Co       1.80000000      12.60000000       7.20000000      58.93319400       60        1
Mn       0.00000000      10.80000000      10.80000000      54.93804400       61        5
Co       0.00000000      12.60000000      12.60000000      58.93319400       62        1
Fe       1.80000000      10.80000000      12.60000000      55.84500000       63        4
Co       1.80000000      12.60000000      10.80000000      58.93319400       64        1
Ni       3.60000000       0.00000000       0.00000000      58.69340000       65        2
Co       3.60000000       1.80000000       1.80000000      58.93319400       66        1
Cr       5.40000000       0.00000000       1.80000000      51.99610000       67        3
Fe       5.40000000       1.80000000       0.00000000      55.84500000       68        4
Mn       3.60000000       0.00000000       3.60000000      54.93804400       69        5
Co       3.60000000       1.80000000       5.40000000      58.93319400       70        1
Mn       5.40000000       0.00000000       5.40000000      54.93804400       71        5
Co       5.40000000       1.80000000       3.60000000      58.93319400       72        1
Co       3.60000000       0.00000000       7.20000000      58.93319400       73        1
Ni       3.60000000       1.80000000       9.00000000      58.69340000       74        2
Ni       5.40000000       0.00000000       9.00000000      58.69340000       75        2
Mn       5.40000000       1.80000000       7.20000000      54.93804400       76        5
Ni       3.60000000       0.00000000      10.80000000      58.69340000       77        2
Mn       3.60000000       1.80000000      12.60000000      54.93804400       78        5
Mn       5.40000000       0.00000000      12.60000000      54.93804400       79        5
Cr       5.40000000       1.80000000      10.80000000      51.99610000       80        3
Mn       3.60000000       3.60000000       0.00000000      54.93804400       81        5
Mn       3.60000000       5.40000000       1.80000000      54.93804400       82        5
Mn       5.40000000       3.60000000       1.80000000      54.93804400       83        5
Mn       5.40000000       5.40000000       0.00000000      54.93804400       84        5
Mn       3.60000000       3.60000000       3.60000000      54.93804400       85        5
Cr       3.60000000       5.40000000       5.40000000      51.99610000       86        3
Ni       5.40000000       3.60000000       5.40000000      58.69340000       87        2
Cr       5.40000000       5.40000000       3.60000000      51.99610000       88        3
Mn       3.60000000       3.60000000       7.20000000      54.93804400       89        5
Mn       3.60000000       5.40000000       9.00000000      54.93804400       90        5
Mn       5.40000000       3.60000000       9.00000000      54.93804400       91        5
Mn       5.40000000       5.40000000       7.20000000      54.93804400       92        5
Mn       3.60000000       3.60000000      10.80000000      54.93804400       93        5
Fe       3.60000000       5.40000000      12.60000000      55.84500000       94        4
Cr       5.40000000       3.60000000      12.60000000      51.99610000       95        3
Fe       5.40000000       5.40000000      10.80000000      55.84500000       96        4
Cr       3.60000000       7.20000000       0.00000000      51.99610000       97        3
Mn       3.60000000       9.00000000       1.80000000      54.93804400       98        5
Mn       5.40000000       7.20000000       1.80000000      54.93804400       99        5
Ni       5.40000000       9.00000000       0.00000000      58.69340000      100        2
Mn       3.60000000       7.20000000       3.60000000      54.93804400      101        5
Mn       3.60000000       9.00000000       5.40000000      54.93804400      102        5
Mn       5.40000000       7.20000000       5.40000000      54.93804400      103        5
Mn       5.40000000       9.00000000       3.60000000      54.93804400      104        5
Mn       3.60000000       7.20000000       7.20000000      54.93804400      105        5
Fe       3.60000000       9.00000000       9.00000000      55.84500000      106        4
Fe       5.40000000       7.20000000       9.00000000      55.84500000      107        4
Fe       5.40000000       9.00000000       7.20000000      55.84500000      108        4
Fe       3.60000000       7.20000000      10.80000000      55.84500000      109        4
Fe       3.60000000       9.00000000      12.60000000      55.84500000      110        4
Fe       5.40000000       7.20000000      12.60000000      55.84500000      111        4
Fe       5.40000000       9.00000000      10.80000000      55.84500000      112        4
Cr       3.60000000      10.80000000       0.00000000      51.99610000      113        3
Ni       3.60000000      12.60000000       1.80000000      58.69340000      114        2
Ni       5.40000000      10.80000000       1.80000000      58.69340000      115        2
Ni       5.40000000      12.60000000       0.00000000      58.69340000      116        2
Mn       3.60000000      10.80000000       3.60000000      54.93804400      117        5
Co       3.60000000      12.60000000       5.40000000      58.93319400      118        1
Mn       5.40000000      10.80000000       5.40000000      54.93804400      119        5
Mn       5.40000000      12.60000000       3.60000000      54.93804400      120        5
Co       3.60000000      10.80000000       7.20000000      58.93319400      121        1
Co       3.60000000      12.60000000       9.00000000      58.93319400      122        1
Fe       5.40000000      10.80000000       9.00000000      55.84500000      123        4
Co       5.40000000      12.60000000       7.20000000      58.93319400      124        1
Fe       3.60000000      10.80000000      10.80000000      55.84500000      125        4
Cr       3.60000000      12.60000000      12.60000000      51.99610000      126        3
Mn       5.40000000      10.80000000      12.60000000      54.93804400      127        5
Mn       5.40000000      12.60000000      10.80000000      54.93804400      128        5
Fe       7.20000000       0.00000000       0.00000000      55.84500000      129        4
Fe       7.20000000       1.80000000       1.80000000      55.84500000      130        4
Cr       9.00000000       0.00000000       1.80000000      51.99610000      131        3
Fe       9.00000000       1.80000000       0.00000000      55.84500000      132        4
Mn       7.20000000       0.00000000       3.60000000      54.93804400      133        5
Co       7.20000000       1.80000000       5.40000000      58.93319400      134        1
Co       9.00000000       0.00000000       5.40000000      58.93319400      135        1
Mn       9.00000000       1.80000000       3.60000000      54.93804400      136        5
Co       7.20000000       0.00000000       7.20000000      58.93319400      137        1
Mn       7.20000000       1.80000000       9.00000000      54.93804400      138        5
Ni       9.00000000       0.00000000       9.00000000      58.69340000      139        2
Co       9.00000000       1.80000000       7.20000000      58.93319400      140        1
Cr       7.20000000       0.00000000      10.80000000      51.99610000      141        3
Fe       7.20000000       1.80000000      12.60000000      55.84500000      142        4
Fe       9.00000000       0.00000000      12.60000000      55.84500000      143        4
Fe       9.00000000       1.80000000      10.80000000      55.84500000      144        4
Fe       7.20000000       3.60000000       0.00000000      55.84500000      145        4
Mn       7.20000000       5.40000000       1.80000000      54.93804400      146        5
Cr       9.00000000       3.60000000       1.80000000      51.99610000      147        3
Fe       9.00000000       5.40000000       0.00000000      55.84500000      148        4
Mn       7.20000000       3.60000000       3.60000000      54.93804400      149        5
Mn       7.20000000       5.40000000       5.40000000      54.93804400      150        5
Mn       9.00000000       3.60000000       5.40000000      54.93804400      151        5
Ni       9.00000000       5.40000000       3.60000000      58.69340000      152        2
Mn       7.20000000       3.60000000       7.20000000      54.93804400      153        5
Fe       7.20000000       5.40000000       9.00000000      55.84500000      154        4
Mn       9.00000000       3.60000000       9.00000000      54.93804400      155        5
Mn       9.00000000       5.40000000       7.20000000      54.93804400      156        5
Fe       7.20000000       3.60000000      10.80000000      55.84500000      157        4
Fe       7.20000000       5.40000000      12.60000000      55.84500000      158        4
Fe       9.00000000       3.60000000      12.60000000      55.84500000      159        4
Fe       9.00000000       5.40000000      10.80000000      55.84500000      160        4
Cr       7.20000000       7.20000000       0.00000000      51.99610000      161        3
Cr       7.20000000       9.00000000       1.80000000      51.99610000      162        3
Ni       9.00000000       7.20000000       1.80000000      58.69340000      163        2
Fe       9.00000000       9.00000000       0.00000000      55.84500000      164        4
Mn       7.20000000       7.20000000       3.60000000      54.93804400      165        5
Mn       7.20000000       9.00000000       5.40000000      54.93804400      166        5
Cr       9.00000000       7.20000000       5.40000000      51.99610000      167        3
Fe       9.00000000       9.00000000       3.60000000      55.84500000      168        4
Cr       7.20000000       7.20000000       7.20000000      51.99610000      169        3
Fe       7.20000000       9.00000000       9.00000000      55.84500000      170        4
Fe       9.00000000       7.20000000       9.00000000      55.84500000      171        4
Fe       9.00000000       9.00000000       7.20000000      55.84500000      172        4
Fe       7.20000000       7.20000000      10.80000000      55.84500000      173        4
Mn       7.20000000       9.00000000      12.60000000      54.93804400      174        5
Fe       9.00000000       7.20000000      12.60000000      55.84500000      175        4
Cr       9.00000000       9.00000000      10.80000000      51.99610000      176        3
Cr       7.20000000      10.80000000       0.00000000      51.99610000      177        3
Mn       7.20000000      12.60000000       1.80000000      54.93804400      178        5
Cr       9.00000000      10.80000000       1.80000000      51.99610000      179        3
Fe       9.00000000      12.60000000       0.00000000      55.84500000      180        4
Cr       7.20000000      10.80000000       3.60000000      51.99610000      181        3
Mn       7.20000000      12.60000000       5.40000000      54.93804400      182        5
Fe       9.00000000      10.80000000       5.40000000      55.84500000      183        4
Mn       9.00000000      12.60000000       3.60000000      54.93804400      184        5
Co       7.20000000      10.80000000       7.20000000      58.93319400      185        1
Co       7.20000000      12.60000000       9.00000000      58.93319400      186        1
Ni       9.00000000      10.80000000       9.00000000      58.69340000      187        2
Co       9.00000000      12.60000000       7.20000000      58.93319400      188        1
Cr       7.20000000      10.80000000      10.80000000      51.99610000      189        3
Cr       7.20000000      12.60000000      12.60000000      51.99610000      190        3
Ni       9.00000000      10.80000000      12.60000000      58.69340000      191        2
Ni       9.00000000      12.60000000      10.80000000      58.69340000      192        2
Fe      10.80000000       0.00000000       0.00000000      55.84500000      193        4
Mn      10.80000000       1.80000000       1.80000000      54.93804400      194        5
Cr      12.60000000       0.00000000       1.80000000      51.99610000      195        3
Cr      12.60000000       1.80000000       0.00000000      51.99610000      196        3
Ni      10.80000000       0.00000000       3.60000000      58.69340000      197        2
Co      10.80000000       1.80000000       5.40000000      58.93319400      198        1
Co      12.60000000       0.00000000       5.40000000      58.93319400      199        1
Co      12.60000000       1.80000000       3.60000000      58.93319400      200        1
Ni      10.80000000       0.00000000       7.20000000      58.69340000      201        2
Mn      10.80000000       1.80000000       9.00000000      54.93804400      202        5
Ni      12.60000000       0.00000000       9.00000000      58.69340000      203        2
Ni      12.60000000       1.80000000       7.20000000      58.69340000      204        2
Cr      10.80000000       0.00000000      10.80000000      51.99610000      205        3
Cr      10.80000000       1.80000000      12.60000000      51.99610000      206        3
Ni      12.60000000       0.00000000      12.60000000      58.69340000      207        2
Mn      12.60000000       1.80000000      10.80000000      54.93804400      208        5
Ni      10.80000000       3.60000000       0.00000000      58.69340000      209        2
Cr      10.80000000       5.40000000       1.80000000      51.99610000      210        3
Ni      12.60000000       3.60000000       1.80000000      58.69340000      211        2
Cr      12.60000000       5.40000000       0.00000000      51.99610000      212        3
Ni      10.80000000       3.60000000       3.60000000      58.69340000      213        2
Mn      10.80000000       5.40000000       5.40000000      54.93804400      214        5
Co      12.60000000       3.60000000       5.40000000      58.93319400      215        1
Ni      12.60000000       5.40000000       3.60000000      58.69340000      216        2
Co      10.80000000       3.60000000       7.20000000      58.93319400      217        1
Mn      10.80000000       5.40000000       9.00000000      54.93804400      218        5
Co      12.60000000       3.60000000       9.00000000      58.93319400      219        1
Co      12.60000000       5.40000000       7.20000000      58.93319400      220        1
Mn      10.80000000       3.60000000      10.80000000      54.93804400      221        5
Fe      10.80000000       5.40000000      12.60000000      55.84500000      222        4
Mn      12.60000000       3.60000000      12.60000000      54.93804400      223        5
Co      12.60000000       5.40000000      10.80000000      58.93319400      224        1
Fe      10.80000000       7.20000000       0.00000000      55.84500000      225        4
Fe      10.80000000       9.00000000       1.80000000      55.84500000      226        4
Fe      12.60000000       7.20000000       1.80000000      55.84500000      227        4
Fe      12.60000000       9.00000000       0.00000000      55.84500000      228        4
Cr      10.80000000       7.20000000       3.60000000      51.99610000      229        3
Fe      10.80000000       9.00000000       5.40000000      55.84500000      230        4
Ni      12.60000000       7.20000000       5.40000000      58.69340000      231        2
Cr      12.60000000       9.00000000       3.60000000      51.99610000      232        3
Cr      10.80000000       7.20000000       7.20000000      51.99610000      233        3
Cr      10.80000000       9.00000000       9.00000000      51.99610000      234        3
Ni      12.60000000       7.20000000       9.00000000      58.69340000      235        2
Cr      12.60000000       9.00000000       7.20000000      51.99610000      236        3
Fe      10.80000000       7.20000000      10.80000000      55.84500000      237        4
Cr      10.80000000       9.00000000      12.60000000      51.99610000      238        3
Fe      12.60000000       7.20000000      12.60000000      55.84500000      239        4
Cr      12.60000000       9.00000000      10.80000000      51.99610000      240        3
Cr      10.80000000      10.80000000       0.00000000      51.99610000      241        3
Mn      10.80000000      12.60000000       1.80000000      54.93804400      242        5
Fe      12.60000000      10.80000000       1.80000000      55.84500000      243        4
Cr      12.60000000      12.60000000       0.00000000      51.99610000      244        3
Fe      10.80000000      10.80000000       3.60000000      55.84500000      245        4
Mn      10.80000000      12.60000000       5.40000000      54.93804400      246        5
Ni      12.60000000      10.80000000       5.40000000      58.69340000      247        2
Cr      12.60000000      12.60000000       3.60000000      51.99610000      248        3
Mn      10.80000000      10.80000000       7.20000000      54.93804400      249        5
Cr      10.80000000      12.60000000       9.00000000      51.99610000      250        3
Ni      12.60000000      10.80000000       9.00000000      58.69340000      251        2
Ni      12.60000000      12.60000000       7.20000000      58.69340000      252        2
Cr      10.80000000      10.80000000      10.80000000      51.99610000      253        3
Cr      10.80000000      12.60000000      12.60000000      51.99610000      254        3
Ni      12.60000000      10.80000000      12.60000000      58.69340000      255        2
Ni      12.60000000      12.60000000      10.80000000      58.69340000      256        2
