256
Lattice="14.4 0.0 0.0 0.0 14.4 0.0 0.0 0.0 14.4" Properties=species:S:1:pos:R:3:masses:R:1:id:I:1:type:I:1 comment="(written by ASE)" energy=-1024.32794612819 pbc="T T T"
Fe       0.00000000       0.00000000       0.00000000      55.84500000        1        4
Fe       0.00000000       1.80000000       1.80000000      55.84500000        2        4
Mn       1.80000000       0.00000000       1.80000000      54.93804400        3        5
Ni       1.80000000       1.80000000       0.00000000      58.69340000        4        2
Mn       0.00000000       0.00000000       3.60000000      54.93804400        5        5
Mn       0.00000000       1.80000000       5.40000000      54.93804400        6        5
Ni       1.80000000       0.00000000       5.40000000      58.69340000        7        2
Fe       1.80000000       1.80000000       3.60000000      55.84500000        8        4
Co       0.00000000       0.00000000       7.20000000      58.93319400        9        1
Co       0.00000000       1.80000000       9.00000000      58.93319400       10        1
Ni       1.80000000       0.00000000       9.00000000      58.69340000       11        2
Ni       1.80000000       1.80000000       7.20000000      58.69340000       12        2
Fe       0.00000000       0.00000000      10.80000000      55.84500000       13        4
Fe       0.00000000       1.80000000      12.60000000      55.84500000       14        4
Mn       1.80000000       0.00000000      12.60000000      54.93804400       15        5
Mn       1.80000000       1.80000000      10.80000000      54.93804400       16        5
Cr       0.00000000       3.60000000       0.00000000      51.99610000       17        3
Cr       0.00000000       5.40000000       1.80000000      51.99610000       18        3
Cr       1.80000000       3.60000000       1.80000000      51.99610000       19        3
Cr       1.80000000       5.40000000       0.00000000      51.99610000       20        3
Ni       0.00000000       3.60000000       3.60000000      58.69340000       21        2
Cr       0.00000000       5.40000000       5.40000000      51.99610000       22        3
Mn       1.80000000       3.60000000       5.40000000      54.93804400       23        5
Cr       1.80000000       5.40000000       3.60000000      51.99610000       24        3
Fe       0.00000000       3.60000000       7.20000000      55.84500000       25        4
Ni       0.00000000       5.40000000       9.00000000      58.69340000       26        2
Co       1.80000000       3.60000000       9.00000000      58.93319400       27        1
Co       1.80000000       5.40000000       7.20000000      58.93319400       28        1
Co       0.00000000       3.60000000      10.80000000      58.93319400       29        1
Co       0.00000000       5.40000000      12.60000000      58.93319400       30        1
Mn       1.80000000       3.60000000      12.60000000      54.93804400       31        5
Co       1.80000000       5.40000000      10.80000000      58.93319400       32        1
Co       0.00000000       7.20000000       0.00000000      58.93319400       33        1
Co       0.00000000       9.00000000       1.80000000      58.93319400       34        1
Cr       1.80000000       7.20000000       1.80000000      51.99610000       35        3
Ni       1.80000000       9.00000000       0.00000000      58.69340000       36        2
Cr       0.00000000       7.20000000       3.60000000      51.99610000       37        3
Ni       0.00000000       9.00000000       5.40000000      58.69340000       38        2
Cr       1.80000000       7.20000000       5.40000000      51.99610000       39        3
Ni       1.80000000       9.00000000       3.60000000      58.69340000       40        2
Cr       0.00000000       7.20000000       7.20000000      51.99610000       41        3
Ni       0.00000000       9.00000000       9.00000000      58.69340000       42        2
Cr       1.80000000       7.20000000       9.00000000      51.99610000       43        3
Co       1.80000000       9.00000000       7.20000000      58.93319400       44        1
Co       0.00000000       7.20000000      10.80000000      58.93319400       45        1
Co       0.00000000       9.00000000      12.60000000      58.93319400       46        1
Cr       1.80000000       7.20000000      12.60000000      51.99610000       47        3
Cr       1.80000000       9.00000000      10.80000000      51.99610000       48        3
Cr       0.00000000      10.80000000       0.00000000      51.99610000       49        3
Ni       0.00000000      12.60000000       1.80000000      58.69340000       50        2
Fe       1.80000000      10.80000000       1.80000000      55.84500000       51        4
Mn       1.80000000      12.60000000       0.00000000      54.93804400       52        5
Cr       0.00000000      10.80000000       3.60000000      51.99610000       53        3
Co       0.00000000      12.60000000       5.40000000      58.93319400       54        1
Co       1.80000000      10.80000000       5.40000000      58.93319400       55        1
Fe       1.80000000      12.60000000       3.60000000      55.84500000       56        4
Co       0.00000000      10.80000000       7.20000000      58.93319400       57        1
Co       0.00000000      12.60000000       9.00000000      58.93319400       58        1
Cr       1.80000000      10.80000000       9.00000000      51.99610000       59        3
Co       1.80000000      12.60000000       7.20000000      58.93319400       60        1
Cr       0.00000000      10.80000000      10.80000000      51.99610000       61        3
Ni       0.00000000      12.60000000      12.60000000      58.69340000       62        2
Cr       1.80000000      10.80000000      12.60000000      51.99610000       63        3
Ni       1.80000000      12.60000000      10.80000000      58.69340000       64        2
Fe       3.60000000       0.00000000       0.00000000      55.84500000       65        4
Mn       3.60000000       1.80000000       1.80000000      54.93804400       66        5
Mn       5.40000000       0.00000000       1.80000000      54.93804400       67        5
Fe       5.40000000       1.80000000       0.00000000      55.84500000       68        4
Mn       3.60000000       0.00000000       3.60000000      54.93804400       69        5
Mn       3.60000000       1.80000000       5.40000000      54.93804400       70        5
Ni       5.40000000       0.00000000       5.40000000      58.69340000       71        2
Fe       5.40000000       1.80000000       3.60000000      55.84500000       72        4
Cr       3.60000000       0.00000000       7.20000000      51.99610000       73        3
Co       3.60000000       1.80000000       9.00000000      58.93319400       74        1
Ni       5.40000000       0.00000000       9.00000000      58.69340000       75        2
Co       5.40000000       1.80000000       7.20000000      58.93319400       76        1
Fe       3.60000000       0.00000000      10.80000000      55.84500000       77        4
Fe       3.60000000       1.80000000      12.60000000      55.84500000       78        4
Mn       5.40000000       0.00000000      12.60000000      54.93804400       79        5
Mn       5.40000000       1.80000000      10.80000000      54.93804400       80        5
Ni       3.60000000       3.60000000       0.00000000      58.69340000       81        2
Cr       3.60000000       5.40000000       1.80000000      51.99610000       82        3
Ni       5.40000000       3.60000000       1.80000000      58.69340000       83        2
Ni       5.40000000       5.40000000       0.00000000      58.69340000       84        2
Ni       3.60000000       3.60000000       3.60000000      58.69340000       85        2
Cr       3.60000000       5.40000000       5.40000000      51.99610000       86        3
Mn       5.40000000       3.60000000       5.40000000      54.93804400       87        5
Cr       5.40000000       5.40000000       3.60000000      51.99610000       88        3
Co       3.60000000       3.60000000       7.20000000      58.93319400       89        1
Co       3.60000000       5.40000000       9.00000000      58.93319400       90        1
Mn       5.40000000       3.60000000       9.00000000      54.93804400       91        5
Ni       5.40000000       5.40000000       7.20000000      58.69340000       92        2
Fe       3.60000000       3.60000000      10.80000000      55.84500000       93        4
Ni       3.60000000       5.40000000      12.60000000      58.69340000       94        2
Mn       5.40000000       3.60000000      12.60000000      54.93804400       95        5
Fe       5.40000000       5.40000000      10.80000000      55.84500000       96        4
Cr       3.60000000       7.20000000       0.00000000      51.99610000       97        3
Co       3.60000000       9.00000000       1.80000000      58.93319400       98        1
Cr       5.40000000       7.20000000       1.80000000      51.99610000       99        3
Fe       5.40000000       9.00000000       0.00000000      55.84500000      100        4
Cr       3.60000000       7.20000000       3.60000000      51.99610000      101        3
Co       3.60000000       9.00000000       5.40000000      58.93319400      102        1
Cr       5.40000000       7.20000000       5.40000000      51.99610000      103        3
Ni       5.40000000       9.00000000       3.60000000      58.69340000      104        2
Cr       3.60000000       7.20000000       7.20000000      51.99610000      105        3
Ni       3.60000000       9.00000000       9.00000000      58.69340000      106        2
Mn       5.40000000       7.20000000       9.00000000      54.93804400      107        5
Fe       5.40000000       9.00000000       7.20000000      55.84500000      108        4
Co       3.60000000       7.20000000      10.80000000      58.93319400      109        1
Ni       3.60000000       9.00000000      12.60000000      58.69340000      110        2
Mn       5.40000000       7.20000000      12.60000000      54.93804400      111        5
Mn       5.40000000       9.00000000      10.80000000      54.93804400      112        5
Mn       3.60000000      10.80000000       0.00000000      54.93804400      113        5
Fe       3.60000000      12.60000000       1.80000000      55.84500000      114        4
Mn       5.40000000      10.80000000       1.80000000      54.93804400      115        5
Fe       5.40000000      12.60000000       0.00000000      55.84500000      116        4
Mn       3.60000000      10.80000000       3.60000000      54.93804400      117        5
Mn       3.60000000      12.60000000       5.40000000      54.93804400      118        5
Fe       5.40000000      10.80000000       5.40000000      55.84500000      119        4
Fe       5.40000000      12.60000000       3.60000000      55.84500000      120        4
Co       3.60000000      10.80000000       7.20000000      58.93319400      121        1
Cr       3.60000000      12.60000000       9.00000000      51.99610000      122        3
Fe       5.40000000      10.80000000       9.00000000      55.84500000      123        4
Mn       5.40000000      12.60000000       7.20000000      54.93804400      124        5
Cr       3.60000000      10.80000000      10.80000000      51.99610000      125        3
Ni       3.60000000      12.60000000      12.60000000      58.69340000      126        2
Co       5.40000000      10.80000000      12.60000000      58.93319400      127        1
Mn       5.40000000      12.60000000      10.80000000      54.93804400      128        5
Mn       7.20000000       0.00000000       0.00000000      54.93804400      129        5
Ni       7.20000000       1.80000000       1.80000000      58.69340000      130        2
Mn       9.00000000       0.00000000       1.80000000      54.93804400      131        5
Ni       9.00000000       1.80000000       0.00000000      58.69340000      132        2
Mn       7.20000000       0.00000000       3.60000000      54.93804400      133        5
Co       7.20000000       1.80000000       5.40000000      58.93319400      134        1
Co       9.00000000       0.00000000       5.40000000      58.93319400      135        1
Co       9.00000000       1.80000000       3.60000000      58.93319400      136        1
Co       7.20000000       0.00000000       7.20000000      58.93319400      137        1
Fe       7.20000000       1.80000000       9.00000000      55.84500000      138        4
Fe       9.00000000       0.00000000       9.00000000      55.84500000      139        4
Mn       9.00000000       1.80000000       7.20000000      54.93804400      140        5
Fe       7.20000000       0.00000000      10.80000000      55.84500000      141        4
Fe       7.20000000       1.80000000      12.60000000      55.84500000      142        4
Fe       9.00000000       0.00000000      12.60000000      55.84500000      143        4
Mn       9.00000000       1.80000000      10.80000000      54.93804400      144        5
Cr       7.20000000       3.60000000       0.00000000      51.99610000      145        3
Cr       7.20000000       5.40000000       1.80000000      51.99610000      146        3
Cr       9.00000000       3.60000000       1.80000000      51.99610000      147        3
Ni       9.00000000       5.40000000       0.00000000      58.69340000      148        2
Cr       7.20000000       3.60000000       3.60000000      51.99610000      149        3
Cr       7.20000000       5.40000000       5.40000000      51.99610000      150        3
Cr       9.00000000       3.60000000       5.40000000      51.99610000      151        3
Cr       9.00000000       5.40000000       3.60000000      51.99610000      152        3
Co       7.20000000       3.60000000       7.20000000      58.93319400      153        1
Fe       7.20000000       5.40000000       9.00000000      55.84500000      154        4
Co       9.00000000       3.60000000       9.00000000      58.93319400      155        1
Ni       9.00000000       5.40000000       7.20000000      58.69340000      156        2
Ni       7.20000000       3.60000000      10.80000000      58.69340000      157        2
Fe       7.20000000       5.40000000      12.60000000      55.84500000      158        4
Mn       9.00000000       3.60000000      12.60000000      54.93804400      159        5
Mn       9.00000000       5.40000000      10.80000000      54.93804400      160        5
Mn       7.20000000       7.20000000       0.00000000      54.93804400      161        5
Co       7.20000000       9.00000000       1.80000000      58.93319400      162        1
Ni       9.00000000       7.20000000       1.80000000      58.69340000      163        2
Mn       9.00000000       9.00000000       0.00000000      54.93804400      164        5
Cr       7.20000000       7.20000000       3.60000000      51.99610000      165        3
Ni       7.20000000       9.00000000       5.40000000      58.69340000      166        2
Ni       9.00000000       7.20000000       5.40000000      58.69340000      167        2
Co       9.00000000       9.00000000       3.60000000      58.93319400      168        1
Mn       7.20000000       7.20000000       7.20000000      54.93804400      169        5
Fe       7.20000000       9.00000000       9.00000000      55.84500000      170        4
Mn       9.00000000       7.20000000       9.00000000      54.93804400      171        5
Mn       9.00000000       9.00000000       7.20000000      54.93804400      172        5
Fe       7.20000000       7.20000000      10.80000000      55.84500000      173        4
Fe       7.20000000       9.00000000      12.60000000      55.84500000      174        4
Fe       9.00000000       7.20000000      12.60000000      55.84500000      175        4
Mn       9.00000000       9.00000000      10.80000000      54.93804400      176        5
Mn       7.20000000      10.80000000       0.00000000      54.93804400      177        5
Fe       7.20000000      12.60000000       1.80000000      55.84500000      178        4
Fe       9.00000000      10.80000000       1.80000000      55.84500000      179        4
Fe       9.00000000      12.60000000       0.00000000      55.84500000      180        4
Mn       7.20000000      10.80000000       3.60000000      54.93804400      181        5
Ni       7.20000000      12.60000000       5.40000000      58.69340000      182        2
Fe       9.00000000      10.80000000       5.40000000      55.84500000      183        4
Co       9.00000000      12.60000000       3.60000000      58.93319400      184        1
Mn       7.20000000      10.80000000       7.20000000      54.93804400      185        5
Fe       7.20000000      12.60000000       9.00000000      55.84500000      186        4
Fe       9.00000000      10.80000000       9.00000000      55.84500000      187        4
Mn       9.00000000      12.60000000       7.20000000      54.93804400      188        5
Mn       7.20000000      10.80000000      10.80000000      54.93804400      189        5
Ni       7.20000000      12.60000000      12.60000000      58.69340000      190        2
Fe       9.00000000      10.80000000      12.60000000      55.84500000      191        4
Mn       9.00000000      12.60000000      10.80000000      54.93804400      192        5
Mn      10.80000000       0.00000000       0.00000000      54.93804400      193        5
Ni      10.80000000       1.80000000       1.80000000      58.69340000      194        2
Mn      12.60000000       0.00000000       1.80000000      54.93804400      195        5
Ni      12.60000000       1.80000000       0.00000000      58.69340000      196        2
Co      10.80000000       0.00000000       3.60000000      58.93319400      197        1
Co      10.80000000       1.80000000       5.40000000      58.93319400      198        1
Co      12.60000000       0.00000000       5.40000000      58.93319400      199        1
Co      12.60000000       1.80000000       3.60000000      58.93319400      200        1
Fe      10.80000000       0.00000000       7.20000000      55.84500000      201        4
Fe      10.80000000       1.80000000       9.00000000      55.84500000      202        4
Ni      12.60000000       0.00000000       9.00000000      58.69340000      203        2
Mn      12.60000000       1.80000000       7.20000000      54.93804400      204        5
Mn      10.80000000       0.00000000      10.80000000      54.93804400      205        5
Fe      10.80000000       1.80000000      12.60000000      55.84500000      206        4
Mn      12.60000000       0.00000000      12.60000000      54.93804400      207        5
Mn      12.60000000       1.80000000      10.80000000      54.93804400      208        5
Mn      10.80000000       3.60000000       0.00000000      54.93804400      209        5
Cr      10.80000000       5.40000000       1.80000000      51.99610000      210        3
Cr      12.60000000       3.60000000       1.80000000      51.99610000      211        3
Co      12.60000000       5.40000000       0.00000000      58.93319400      212        1
Cr      10.80000000       3.60000000       3.60000000      51.99610000      213        3
Cr      10.80000000       5.40000000       5.40000000      51.99610000      214        3
Ni      12.60000000       3.60000000       5.40000000      58.69340000      215        2
Cr      12.60000000       5.40000000       3.60000000      51.99610000      216        3
Co      10.80000000       3.60000000       7.20000000      58.93319400      217        1
Co      10.80000000       5.40000000       9.00000000      58.93319400      218        1
Co      12.60000000       3.60000000       9.00000000      58.93319400      219        1
Cr      12.60000000       5.40000000       7.20000000      51.99610000      220        3
Ni      10.80000000       3.60000000      10.80000000      58.69340000      221        2
Fe      10.80000000       5.40000000      12.60000000      55.84500000      222        4
Fe      12.60000000       3.60000000      12.60000000      55.84500000      223        4
Mn      12.60000000       5.40000000      10.80000000      54.93804400      224        5
Mn      10.80000000       7.20000000       0.00000000      54.93804400      225        5
Co      10.80000000       9.00000000       1.80000000      58.93319400      226        1
Co      12.60000000       7.20000000       1.80000000      58.93319400      227        1
Co      12.60000000       9.00000000       0.00000000      58.93319400      228        1
Cr      10.80000000       7.20000000       3.60000000      51.99610000      229        3
Mn      10.80000000       9.00000000       5.40000000      54.93804400      230        5
Ni      12.60000000       7.20000000       5.40000000      58.69340000      231        2
Cr      12.60000000       9.00000000       3.60000000      51.99610000      232        3
Fe      10.80000000       7.20000000       7.20000000      55.84500000      233        4
Ni      10.80000000       9.00000000       9.00000000      58.69340000      234        2
Mn      12.60000000       7.20000000       9.00000000      54.93804400      235        5
Fe      12.60000000       9.00000000       7.20000000      55.84500000      236        4
Fe      10.80000000       7.20000000      10.80000000      55.84500000      237        4
Fe      10.80000000       9.00000000      12.60000000      55.84500000      238        4
Co      12.60000000       7.20000000      12.60000000      58.93319400      239        1
Co      12.60000000       9.00000000      10.80000000      58.93319400      240        1
Mn      10.80000000      10.80000000       0.00000000      54.93804400      241        5
Ni      10.80000000      12.60000000       1.80000000      58.69340000      242        2
Cr      12.60000000      10.80000000       1.80000000      51.99610000      243        3
Fe      12.60000000      12.60000000       0.00000000      55.84500000      244        4
Co      10.80000000      10.80000000       3.60000000      58.93319400      245        1
Ni      10.80000000      12.60000000       5.40000000      58.69340000      246        2
Ni      12.60000000      10.80000000       5.40000000      58.69340000      247        2
Cr      12.60000000      12.60000000       3.60000000      51.99610000      248        3
Fe      10.80000000      10.80000000       7.20000000      55.84500000      249        4
Fe      10.80000000      12.60000000       9.00000000      55.84500000      250        4
Mn      12.60000000      10.80000000       9.00000000      54.93804400      251        5
Mn      12.60000000      12.60000000       7.20000000      54.93804400      252        5
Mn      10.80000000      10.80000000      10.80000000      54.93804400      253        5
Mn      10.80000000      12.60000000      12.60000000      54.93804400      254        5
Ni      12.60000000      10.80000000      12.60000000      58.69340000      255        2
Fe      12.60000000      12.60000000      10.80000000      55.84500000      256        4
