256
Lattice="14.4 0.0 0.0 0.0 14.4 0.0 0.0 0.0 14.4" Properties=species:S:1:pos:R:3:masses:R:1:id:I:1:type:I:1 comment="(written by ASE)" energy=-1019.48910453722 pbc="T T T"
Cr       0.00000000       0.00000000       0.00000000      51.99610000        1        3
Cr       0.00000000       1.80000000       1.80000000      51.99610000        2        3
Fe       1.80000000       0.00000000       1.80000000      55.84500000        3        4
Mn       1.80000000       1.80000000       0.00000000      54.93804400        4        5
Co       0.00000000       0.00000000       3.60000000      58.93319400        5        1
Ni       0.00000000       1.80000000       5.40000000      58.69340000        6        2
Ni       1.80000000       0.00000000       5.40000000      58.69340000        7        2
Co       1.80000000       1.80000000       3.60000000      58.93319400        8        1
Co       0.00000000       0.00000000       7.20000000      58.93319400        9        1
Cr       0.00000000       1.80000000       9.00000000      51.99610000       10        3
Ni       1.80000000       0.00000000       9.00000000      58.69340000       11        2
Ni       1.80000000       1.80000000       7.20000000      58.69340000       12        2
Mn       0.00000000       0.00000000      10.80000000      54.93804400       13        5
Cr       0.00000000       1.80000000      12.60000000      51.99610000       14        3
Mn       1.80000000       0.00000000      12.60000000      54.93804400       15        5
Cr       1.80000000       1.80000000      10.80000000      51.99610000       16        3
Mn       0.00000000       3.60000000       0.00000000      54.93804400       17        5
Cr       0.00000000       5.40000000       1.80000000      51.99610000       18        3
Mn       1.80000000       3.60000000       1.80000000      54.93804400       19        5
Co       1.80000000       5.40000000       0.00000000      58.93319400       20        1
Mn       0.00000000       3.60000000       3.60000000      54.93804400       21        5
Fe       0.00000000       5.40000000       5.40000000      55.84500000       22        4
Co       1.80000000       3.60000000       5.40000000      58.93319400       23        1
Cr       1.80000000       5.40000000       3.60000000      51.99610000       24        3
Co       0.00000000       3.60000000       7.20000000      58.93319400       25        1
Fe       0.00000000       5.40000000       9.00000000      55.84500000       26        4
Cr       1.80000000       3.60000000       9.00000000      51.99610000       27        3
Fe       1.80000000       5.40000000       7.20000000      55.84500000       28        4
Fe       0.00000000       3.60000000      10.80000000      55.84500000       29        4
Ni       0.00000000       5.40000000      12.60000000      58.69340000       30        2
Mn       1.80000000       3.60000000      12.60000000      54.93804400       31        5
Co       1.80000000       5.40000000      10.80000000      58.93319400       32        1
Co       0.00000000       7.20000000       0.00000000      58.93319400       33        1
Fe       0.00000000       9.00000000       1.80000000      55.84500000       34        4
Fe       1.80000000       7.20000000       1.80000000      55.84500000       35        4
Fe       1.80000000       9.00000000       0.00000000      55.84500000       36        4
Fe       0.00000000       7.20000000       3.60000000      55.84500000       37        4
Fe       0.00000000       9.00000000       5.40000000      55.84500000       38        4
Fe       1.80000000       7.20000000       5.40000000      55.84500000       39        4
Fe       1.80000000       9.00000000       3.60000000      55.84500000       40        4
Fe       0.00000000       7.20000000       7.20000000      55.84500000       41        4
Co       0.00000000       9.00000000       9.00000000      58.93319400       42        1
Co       1.80000000       7.20000000       9.00000000      58.93319400       43        1
Fe       1.80000000       9.00000000       7.20000000      55.84500000       44        4
Co       0.00000000       7.20000000      10.80000000      58.93319400       45        1
Mn       0.00000000       9.00000000      12.60000000      54.93804400       46        5
Ni       1.80000000       7.20000000      12.60000000      58.69340000       47        2
Ni       1.80000000       9.00000000      10.80000000      58.69340000       48        2
Fe       0.00000000      10.80000000       0.00000000      55.84500000       49        4
Cr       0.00000000      12.60000000       1.80000000      51.99610000       50        3
Fe       1.80000000      10.80000000       1.80000000      55.84500000       51        4
Cr       1.80000000      12.60000000       0.00000000      51.99610000       52        3
Cr       0.00000000      10.80000000       3.60000000      51.99610000       53        3
Ni       0.00000000      12.60000000       5.40000000      58.69340000       54        2
Cr       1.80000000      10.80000000       5.40000000      51.99610000       55        3
Cr       1.80000000      12.60000000       3.60000000      51.99610000       56        3
Ni       0.00000000      10.80000000       7.20000000      58.69340000       57        2
Ni       0.00000000      12.60000000       9.00000000      58.69340000       58        2
Mn       1.80000000      10.80000000       9.00000000      54.93804400       59        5
Mn       1.80000000      12.60000000       7.20000000      54.93804400       60        5
Mn       0.00000000      10.80000000      10.80000000      54.93804400       61        5
Mn       0.00000000      12.60000000      12.60000000      54.93804400       62        5
Mn       1.80000000      10.80000000      12.60000000      54.93804400       63        5
Mn       1.80000000      12.60000000      10.80000000      54.93804400       64        5
Cr       3.60000000       0.00000000       0.00000000      51.99610000       65        3
Cr       3.60000000       1.80000000       1.80000000      51.99610000       66        3
Fe       5.40000000       0.00000000       1.80000000      55.84500000       67        4
Mn       5.40000000       1.80000000       0.00000000      54.93804400       68        5
Co       3.60000000       0.00000000       3.60000000      58.93319400       69        1
Ni       3.60000000       1.80000000       5.40000000      58.69340000       70        2
Ni       5.40000000       0.00000000       5.40000000      58.69340000       71        2
Co       5.40000000       1.80000000       3.60000000      58.93319400       72        1
Co       3.60000000       0.00000000       7.20000000      58.93319400       73        1
Ni       3.60000000       1.80000000       9.00000000      58.69340000       74        2
Ni       5.40000000       0.00000000       9.00000000      58.69340000       75        2
Co       5.40000000       1.80000000       7.20000000      58.93319400       76        1
Ni       3.60000000       0.00000000      10.80000000      58.69340000       77        2
Mn       3.60000000       1.80000000      12.60000000      54.93804400       78        5
Mn       5.40000000       0.00000000      12.60000000      54.93804400       79        5
Ni       5.40000000       1.80000000      10.80000000      58.69340000       80        2
Mn       3.60000000       3.60000000       0.00000000      54.93804400       81        5
Cr       3.60000000       5.40000000       1.80000000      51.99610000       82        3
Fe       5.40000000       3.60000000       1.80000000      55.84500000       83        4
Co       5.40000000       5.40000000       0.00000000      58.93319400       84        1
Fe       3.60000000       3.60000000       3.60000000      55.84500000       85        4
Fe       3.60000000       5.40000000       5.40000000      55.84500000       86        4
Co       5.40000000       3.60000000       5.40000000      58.93319400       87        1
Fe       5.40000000       5.40000000       3.60000000      55.84500000       88        4
Co       3.60000000       3.60000000       7.20000000      58.93319400       89        1
Cr       3.60000000       5.40000000       9.00000000      51.99610000       90        3
Ni       5.40000000       3.60000000       9.00000000      58.69340000       91        2
Fe       5.40000000       5.40000000       7.20000000      55.84500000       92        4
Ni       3.60000000       3.60000000      10.80000000      58.69340000       93        2
Ni       3.60000000       5.40000000      12.60000000      58.69340000       94        2
Ni       5.40000000       3.60000000      12.60000000      58.69340000       95        2
Ni       5.40000000       5.40000000      10.80000000      58.69340000       96        2
Fe       3.60000000       7.20000000       0.00000000      55.84500000       97        4
Fe       3.60000000       9.00000000       1.80000000      55.84500000       98        4
Fe       5.40000000       7.20000000       1.80000000      55.84500000       99        4
Cr       5.40000000       9.00000000       0.00000000      51.99610000      100        3
Fe       3.60000000       7.20000000       3.60000000      55.84500000      101        4
Fe       3.60000000       9.00000000       5.40000000      55.84500000      102        4
Fe       5.40000000       7.20000000       5.40000000      55.84500000      103        4
Fe       5.40000000       9.00000000       3.60000000      55.84500000      104        4
Fe       3.60000000       7.20000000       7.20000000      55.84500000      105        4
Co       3.60000000       9.00000000       9.00000000      58.93319400      106        1
Fe       5.40000000       7.20000000       9.00000000      55.84500000      107        4
Fe       5.40000000       9.00000000       7.20000000      55.84500000      108        4
Co       3.60000000       7.20000000      10.80000000      58.93319400      109        1
Co       3.60000000       9.00000000      12.60000000      58.93319400      110        1
Co       5.40000000       7.20000000      12.60000000      58.93319400      111        1
Ni       5.40000000       9.00000000      10.80000000      58.69340000      112        2
Co       3.60000000      10.80000000       0.00000000      58.93319400      113        1
Fe       3.60000000      12.60000000       1.80000000      55.84500000      114        4
Cr       5.40000000      10.80000000       1.80000000      51.99610000      115        3
Mn       5.40000000      12.60000000       0.00000000      54.93804400      116        5
Fe       3.60000000      10.80000000       3.60000000      55.84500000      117        4
Co       3.60000000      12.60000000       5.40000000      58.93319400      118        1
Co       5.40000000      10.80000000       5.40000000      58.93319400      119        1
Co       5.40000000      12.60000000       3.60000000      58.93319400      120        1
Fe       3.60000000      10.80000000       7.20000000      55.84500000      121        4
Mn       3.60000000      12.60000000       9.00000000      54.93804400      122        5
Co       5.40000000      10.80000000       9.00000000      58.93319400      123        1
Ni       5.40000000      12.60000000       7.20000000      58.69340000      124        2
Ni       3.60000000      10.80000000      10.80000000      58.69340000      125        2
Cr       3.60000000      12.60000000      12.60000000      51.99610000      126        3
Ni       5.40000000      10.80000000      12.60000000      58.69340000      127        2
Mn       5.40000000      12.60000000      10.80000000      54.93804400      128        5
Cr       7.20000000       0.00000000       0.00000000      51.99610000      129        3
Co       7.20000000       1.80000000       1.80000000      58.93319400      130        1
Cr       9.00000000       0.00000000       1.80000000      51.99610000      131        3
Mn       9.00000000       1.80000000       0.00000000      54.93804400      132        5
Co       7.20000000       0.00000000       3.60000000      58.93319400      133        1
Ni       7.20000000       1.80000000       5.40000000      58.69340000      134        2
Ni       9.00000000       0.00000000       5.40000000      58.69340000      135        2
Co       9.00000000       1.80000000       3.60000000      58.93319400      136        1
Co       7.20000000       0.00000000       7.20000000      58.93319400      137        1
Ni       7.20000000       1.80000000       9.00000000      58.69340000      138        2
Ni       9.00000000       0.00000000       9.00000000      58.69340000      139        2
Ni       9.00000000       1.80000000       7.20000000      58.69340000      140        2
Cr       7.20000000       0.00000000      10.80000000      51.99610000      141        3
Mn       7.20000000       1.80000000      12.60000000      54.93804400      142        5
Mn       9.00000000       0.00000000      12.60000000      54.93804400      143        5
Mn       9.00000000       1.80000000      10.80000000      54.93804400      144        5
Cr       7.20000000       3.60000000       0.00000000      51.99610000      145        3
Cr       7.20000000       5.40000000       1.80000000      51.99610000      146        3
Cr       9.00000000       3.60000000       1.80000000      51.99610000      147        3
Mn       9.00000000       5.40000000       0.00000000      54.93804400      148        5
Fe       7.20000000       3.60000000       3.60000000      55.84500000      149        4
Cr       7.20000000       5.40000000       5.40000000      51.99610000      150        3
Co       9.00000000       3.60000000       5.40000000      58.93319400      151        1
Fe       9.00000000       5.40000000       3.60000000      55.84500000      152        4
Co       7.20000000       3.60000000       7.20000000      58.93319400      153        1
Co       7.20000000       5.40000000       9.00000000      58.93319400      154        1
Co       9.00000000       3.60000000       9.00000000      58.93319400      155        1
Fe       9.00000000       5.40000000       7.20000000      55.84500000      156        4
Ni       7.20000000       3.60000000      10.80000000      58.69340000      157        2
Mn       7.20000000       5.40000000      12.60000000      54.93804400      158        5
Mn       9.00000000       3.60000000      12.60000000      54.93804400      159        5
Mn       9.00000000       5.40000000      10.80000000      54.93804400      160        5
Cr       7.20000000       7.20000000       0.00000000      51.99610000      161        3
Mn       7.20000000       9.00000000       1.80000000      54.93804400      162        5
Cr       9.00000000       7.20000000       1.80000000      51.99610000      163        3
Mn       9.00000000       9.00000000       0.00000000      54.93804400      164        5
Fe       7.20000000       7.20000000       3.60000000      55.84500000      165        4
Cr       7.20000000       9.00000000       5.40000000      51.99610000      166        3
Fe       9.00000000       7.20000000       5.40000000      55.84500000      167        4
Cr       9.00000000       9.00000000       3.60000000      51.99610000      168        3
Fe       7.20000000       7.20000000       7.20000000      55.84500000      169        4
Co       7.20000000       9.00000000       9.00000000      58.93319400      170        1
Fe       9.00000000       7.20000000       9.00000000      55.84500000      171        4
Fe       9.00000000       9.00000000       7.20000000      55.84500000      172        4
Cr       7.20000000       7.20000000      10.80000000      51.99610000      173        3
Mn       7.20000000       9.00000000      12.60000000      54.93804400      174        5
Mn       9.00000000       7.20000000      12.60000000      54.93804400      175        5
Mn       9.00000000       9.00000000      10.80000000      54.93804400      176        5
Mn       7.20000000      10.80000000       0.00000000      54.93804400      177        5
Cr       7.20000000      12.60000000       1.80000000      51.99610000      178        3
Cr       9.00000000      10.80000000       1.80000000      51.99610000      179        3
Ni       9.00000000      12.60000000       0.00000000      58.69340000      180        2
Fe       7.20000000      10.80000000       3.60000000      55.84500000      181        4
Co       7.20000000      12.60000000       5.40000000      58.93319400      182        1
Co       9.00000000      10.80000000       5.40000000      58.93319400      183        1
Co       9.00000000      12.60000000       3.60000000      58.93319400      184        1
Co       7.20000000      10.80000000       7.20000000      58.93319400      185        1
Ni       7.20000000      12.60000000       9.00000000      58.69340000      186        2
Co       9.00000000      10.80000000       9.00000000      58.93319400      187        1
Ni       9.00000000      12.60000000       7.20000000      58.69340000      188        2
Mn       7.20000000      10.80000000      10.80000000      54.93804400      189        5
Mn       7.20000000      12.60000000      12.60000000      54.93804400      190        5
Mn       9.00000000      10.80000000      12.60000000      54.93804400      191        5
Mn       9.00000000      12.60000000      10.80000000      54.93804400      192        5
Mn      10.80000000       0.00000000       0.00000000      54.93804400      193        5
Mn      10.80000000       1.80000000       1.80000000      54.93804400      194        5
Mn      12.60000000       0.00000000       1.80000000      54.93804400      195        5
Mn      12.60000000       1.80000000       0.00000000      54.93804400      196        5
Ni      10.80000000       0.00000000       3.60000000      58.69340000      197        2
Co      10.80000000       1.80000000       5.40000000      58.93319400      198        1
Ni      12.60000000       0.00000000       5.40000000      58.69340000      199        2
Ni      12.60000000       1.80000000       3.60000000      58.69340000      200        2
Ni      10.80000000       0.00000000       7.20000000      58.69340000      201        2
Cr      10.80000000       1.80000000       9.00000000      51.99610000      202        3
Mn      12.60000000       0.00000000       9.00000000      54.93804400      203        5
Ni      12.60000000       1.80000000       7.20000000      58.69340000      204        2
Mn      10.80000000       0.00000000      10.80000000      54.93804400      205        5
Cr      10.80000000       1.80000000      12.60000000      51.99610000      206        3
Mn      12.60000000       0.00000000      12.60000000      54.93804400      207        5
Mn      12.60000000       1.80000000      10.80000000      54.93804400      208        5
Mn      10.80000000       3.60000000       0.00000000      54.93804400      209        5
Cr      10.80000000       5.40000000       1.80000000      51.99610000      210        3
Mn      12.60000000       3.60000000       1.80000000      54.93804400      211        5
Mn      12.60000000       5.40000000       0.00000000      54.93804400      212        5
Cr      10.80000000       3.60000000       3.60000000      51.99610000      213        3
Fe      10.80000000       5.40000000       5.40000000      55.84500000      214        4
Co      12.60000000       3.60000000       5.40000000      58.93319400      215        1
Cr      12.60000000       5.40000000       3.60000000      51.99610000      216        3
Co      10.80000000       3.60000000       7.20000000      58.93319400      217        1
Fe      10.80000000       5.40000000       9.00000000      55.84500000      218        4
Cr      12.60000000       3.60000000       9.00000000      51.99610000      219        3
Fe      12.60000000       5.40000000       7.20000000      55.84500000      220        4
Mn      10.80000000       3.60000000      10.80000000      54.93804400      221        5
Cr      10.80000000       5.40000000      12.60000000      51.99610000      222        3
Cr      12.60000000       3.60000000      12.60000000      51.99610000      223        3
Fe      12.60000000       5.40000000      10.80000000      55.84500000      224        4
Mn      10.80000000       7.20000000       0.00000000      54.93804400      225        5
Mn      10.80000000       9.00000000       1.80000000      54.93804400      226        5
Cr      12.60000000       7.20000000       1.80000000      51.99610000      227        3
Mn      12.60000000       9.00000000       0.00000000      54.93804400      228        5
Fe      10.80000000       7.20000000       3.60000000      55.84500000      229        4
Fe      10.80000000       9.00000000       5.40000000      55.84500000      230        4
Fe      12.60000000       7.20000000       5.40000000      55.84500000      231        4
Fe      12.60000000       9.00000000       3.60000000      55.84500000      232        4
Fe      10.80000000       7.20000000       7.20000000      55.84500000      233        4
Co      10.80000000       9.00000000       9.00000000      58.93319400      234        1
Co      12.60000000       7.20000000       9.00000000      58.93319400      235        1
Co      12.60000000       9.00000000       7.20000000      58.93319400      236        1
Cr      10.80000000       7.20000000      10.80000000      51.99610000      237        3
Mn      10.80000000       9.00000000      12.60000000      54.93804400      238        5
Mn      12.60000000       7.20000000      12.60000000      54.93804400      239        5
Ni      12.60000000       9.00000000      10.80000000      58.69340000      240        2
Mn      10.80000000      10.80000000       0.00000000      54.93804400      241        5
Mn      10.80000000      12.60000000       1.80000000      54.93804400      242        5
Cr      12.60000000      10.80000000       1.80000000      51.99610000      243        3
Mn      12.60000000      12.60000000       0.00000000      54.93804400      244        5
Ni      10.80000000      10.80000000       3.60000000      58.69340000      245        2
Co      10.80000000      12.60000000       5.40000000      58.93319400      246        1
Co      12.60000000      10.80000000       5.40000000      58.93319400      247        1
Ni      12.60000000      12.60000000       3.60000000      58.69340000      248        2
Ni      10.80000000      10.80000000       7.20000000      58.69340000      249        2
Ni      10.80000000      12.60000000       9.00000000      58.69340000      250        2
Ni      12.60000000      10.80000000       9.00000000      58.69340000      251        2
Ni      12.60000000      12.60000000       7.20000000      58.69340000      252        2
Cr      10.80000000      10.80000000      10.80000000      51.99610000      253        3
Mn      10.80000000      12.60000000      12.60000000      54.93804400      254        5
Cr      12.60000000      10.80000000      12.60000000      51.99610000      255        3
Mn      12.60000000      12.60000000      10.80000000      54.93804400      256        5
