256
Lattice="14.4 0.0 0.0 0.0 14.4 0.0 0.0 0.0 14.4" Properties=species:S:1:pos:R:3:masses:R:1:id:I:1:type:I:1 comment="(written by ASE)" energy=-1019.82715518678 pbc="T T T"
Ni       0.00000000       0.00000000       0.00000000      58.69340000        1        2
Co       0.00000000       1.80000000       1.80000000      58.93319400        2        1
Fe       1.80000000       0.00000000       1.80000000      55.84500000        3        4
Ni       1.80000000       1.80000000       0.00000000      58.69340000        4        2
Ni       0.00000000       0.00000000       3.60000000      58.69340000        5        2
Fe       0.00000000       1.80000000       5.40000000      55.84500000        6        4
Fe       1.80000000       0.00000000       5.40000000      55.84500000        7        4
Fe       1.80000000       1.80000000       3.60000000      55.84500000        8        4
Mn       0.00000000       0.00000000       7.20000000      54.93804400        9        5
Fe       0.00000000       1.80000000       9.00000000      55.84500000       10        4
Fe       1.80000000       0.00000000       9.00000000      55.84500000       11        4
Fe       1.80000000       1.80000000       7.20000000      55.84500000       12        4
Mn       0.00000000       0.00000000      10.80000000      54.93804400       13        5
Co       0.00000000       1.80000000      12.60000000      58.93319400       14        1
Ni       1.80000000       0.00000000      12.60000000      58.69340000       15        2
Fe       1.80000000       1.80000000      10.80000000      55.84500000       16        4
Ni       0.00000000       3.60000000       0.00000000      58.69340000       17        2
Ni       0.00000000       5.40000000       1.80000000      58.69340000       18        2
Co       1.80000000       3.60000000       1.80000000      58.93319400       19        1
Ni       1.80000000       5.40000000       0.00000000      58.69340000       20        2
Fe       0.00000000       3.60000000       3.60000000      55.84500000       21        4
Cr       0.00000000       5.40000000       5.40000000      51.99610000       22        3
Cr       1.80000000       3.60000000       5.40000000      51.99610000       23        3
Cr       1.80000000       5.40000000       3.60000000      51.99610000       24        3
Fe       0.00000000       3.60000000       7.20000000      55.84500000       25        4
Co       0.00000000       5.40000000       9.00000000      58.93319400       26        1
Fe       1.80000000       3.60000000       9.00000000      55.84500000       27        4
Cr       1.80000000       5.40000000       7.20000000      51.99610000       28        3
Ni       0.00000000       3.60000000      10.80000000      58.69340000       29        2
Ni       0.00000000       5.40000000      12.60000000      58.69340000       30        2
Co       1.80000000       3.60000000      12.60000000      58.93319400       31        1
Fe       1.80000000       5.40000000      10.80000000      55.84500000       32        4
Co       0.00000000       7.20000000       0.00000000      58.93319400       33        1
Ni       0.00000000       9.00000000       1.80000000      58.69340000       34        2
Co       1.80000000       7.20000000       1.80000000      58.93319400       35        1
Ni       1.80000000       9.00000000       0.00000000      58.69340000       36        2
Cr       0.00000000       7.20000000       3.60000000      51.99610000       37        3
Cr       0.00000000       9.00000000       5.40000000      51.99610000       38        3
Cr       1.80000000       7.20000000       5.40000000      51.99610000       39        3
Cr       1.80000000       9.00000000       3.60000000      51.99610000       40        3
Cr       0.00000000       7.20000000       7.20000000      51.99610000       41        3
Ni       0.00000000       9.00000000       9.00000000      58.69340000       42        2
Cr       1.80000000       7.20000000       9.00000000      51.99610000       43        3
Cr       1.80000000       9.00000000       7.20000000      51.99610000       44        3
Co       0.00000000       7.20000000      10.80000000      58.93319400       45        1
Ni       0.00000000       9.00000000      12.60000000      58.69340000       46        2
Co       1.80000000       7.20000000      12.60000000      58.93319400       47        1
Fe       1.80000000       9.00000000      10.80000000      55.84500000       48        4
Fe       0.00000000      10.80000000       0.00000000      55.84500000       49        4
Fe       0.00000000      12.60000000       1.80000000      55.84500000       50        4
Fe       1.80000000      10.80000000       1.80000000      55.84500000       51        4
Fe       1.80000000      12.60000000       0.00000000      55.84500000       52        4
Cr       0.00000000      10.80000000       3.60000000      51.99610000       53        3
Ni       0.00000000      12.60000000       5.40000000      58.69340000       54        2
Cr       1.80000000      10.80000000       5.40000000      51.99610000       55        3
Fe       1.80000000      12.60000000       3.60000000      55.84500000       56        4
Co       0.00000000      10.80000000       7.20000000      58.93319400       57        1
Mn       0.00000000      12.60000000       9.00000000      54.93804400       58        5
Fe       1.80000000      10.80000000       9.00000000      55.84500000       59        4
Co       1.80000000      12.60000000       7.20000000      58.93319400       60        1
Mn       0.00000000      10.80000000      10.80000000      54.93804400       61        5
Co       0.00000000      12.60000000      12.60000000      58.93319400       62        1
Fe       1.80000000      10.80000000      12.60000000      55.84500000       63        4
Ni       1.80000000      12.60000000      10.80000000      58.69340000       64        2
Fe       3.60000000       0.00000000       0.00000000      55.84500000       65        4
Fe       3.60000000       1.80000000       1.80000000      55.84500000       66        4
Fe       5.40000000       0.00000000       1.80000000      55.84500000       67        4
Fe       5.40000000       1.80000000       0.00000000      55.84500000       68        4
Fe       3.60000000       0.00000000       3.60000000      55.84500000       69        4
Cr       3.60000000       1.80000000       5.40000000      51.99610000       70        3
Ni       5.40000000       0.00000000       5.40000000      58.69340000       71        2
Co       5.40000000       1.80000000       3.60000000      58.93319400       72        1
Fe       3.60000000       0.00000000       7.20000000      55.84500000       73        4
Fe       3.60000000       1.80000000       9.00000000      55.84500000       74        4
Ni       5.40000000       0.00000000       9.00000000      58.69340000       75        2
Cr       5.40000000       1.80000000       7.20000000      51.99610000       76        3
Co       3.60000000       0.00000000      10.80000000      58.93319400       77        1
Ni       3.60000000       1.80000000      12.60000000      58.69340000       78        2
Ni       5.40000000       0.00000000      12.60000000      58.69340000       79        2
Fe       5.40000000       1.80000000      10.80000000      55.84500000       80        4
Co       3.60000000       3.60000000       0.00000000      58.93319400       81        1
Co       3.60000000       5.40000000       1.80000000      58.93319400       82        1
Ni       5.40000000       3.60000000       1.80000000      58.69340000       83        2
Ni       5.40000000       5.40000000       0.00000000      58.69340000       84        2
Ni       3.60000000       3.60000000       3.60000000      58.69340000       85        2
Cr       3.60000000       5.40000000       5.40000000      51.99610000       86        3
Cr       5.40000000       3.60000000       5.40000000      51.99610000       87        3
Cr       5.40000000       5.40000000       3.60000000      51.99610000       88        3
Cr       3.60000000       3.60000000       7.20000000      51.99610000       89        3
Cr       3.60000000       5.40000000       9.00000000      51.99610000       90        3
Cr       5.40000000       3.60000000       9.00000000      51.99610000       91        3
Cr       5.40000000       5.40000000       7.20000000      51.99610000       92        3
Fe       3.60000000       3.60000000      10.80000000      55.84500000       93        4
Ni       3.60000000       5.40000000      12.60000000      58.69340000       94        2
Fe       5.40000000       3.60000000      12.60000000      55.84500000       95        4
Fe       5.40000000       5.40000000      10.80000000      55.84500000       96        4
Ni       3.60000000       7.20000000       0.00000000      58.69340000       97        2
Cr       3.60000000       9.00000000       1.80000000      51.99610000       98        3
Cr       5.40000000       7.20000000       1.80000000      51.99610000       99        3
Ni       5.40000000       9.00000000       0.00000000      58.69340000      100        2
Cr       3.60000000       7.20000000       3.60000000      51.99610000      101        3
Cr       3.60000000       9.00000000       5.40000000      51.99610000      102        3
Cr       5.40000000       7.20000000       5.40000000      51.99610000      103        3
Cr       5.40000000       9.00000000       3.60000000      51.99610000      104        3
Cr       3.60000000       7.20000000       7.20000000      51.99610000      105        3
Fe       3.60000000       9.00000000       9.00000000      55.84500000      106        4
Fe       5.40000000       7.20000000       9.00000000      55.84500000      107        4
Cr       5.40000000       9.00000000       7.20000000      51.99610000      108        3
Fe       3.60000000       7.20000000      10.80000000      55.84500000      109        4
Co       3.60000000       9.00000000      12.60000000      58.93319400      110        1
Fe       5.40000000       7.20000000      12.60000000      55.84500000      111        4
Fe       5.40000000       9.00000000      10.80000000      55.84500000      112        4
Fe       3.60000000      10.80000000       0.00000000      55.84500000      113        4
Fe       3.60000000      12.60000000       1.80000000      55.84500000      114        4
Ni       5.40000000      10.80000000       1.80000000      58.69340000      115        2
Fe       5.40000000      12.60000000       0.00000000      55.84500000      116        4
Ni       3.60000000      10.80000000       3.60000000      58.69340000      117        2
Fe       3.60000000      12.60000000       5.40000000      55.84500000      118        4
Fe       5.40000000      10.80000000       5.40000000      55.84500000      119        4
Co       5.40000000      12.60000000       3.60000000      58.93319400      120        1
Fe       3.60000000      10.80000000       7.20000000      55.84500000      121        4
Cr       3.60000000      12.60000000       9.00000000      51.99610000      122        3
Co       5.40000000      10.80000000       9.00000000      58.93319400      123        1
Fe       5.40000000      12.60000000       7.20000000      55.84500000      124        4
Fe       3.60000000      10.80000000      10.80000000      55.84500000      125        4
Fe       3.60000000      12.60000000      12.60000000      55.84500000      126        4
Ni       5.40000000      10.80000000      12.60000000      58.69340000      127        2
Ni       5.40000000      12.60000000      10.80000000      58.69340000      128        2
Mn       7.20000000       0.00000000       0.00000000      54.93804400      129        5
Mn       7.20000000       1.80000000       1.80000000      54.93804400      130        5
Mn       9.00000000       0.00000000       1.80000000      54.93804400      131        5
Mn       9.00000000       1.80000000       0.00000000      54.93804400      132        5
Mn       7.20000000       0.00000000       3.60000000      54.93804400      133        5
Ni       7.20000000       1.80000000       5.40000000      58.69340000      134        2
Mn       9.00000000       0.00000000       5.40000000      54.93804400      135        5
Mn       9.00000000       1.80000000       3.60000000      54.93804400      136        5
Co       7.20000000       0.00000000       7.20000000      58.93319400      137        1
Ni       7.20000000       1.80000000       9.00000000      58.69340000      138        2
Co       9.00000000       0.00000000       9.00000000      58.93319400      139        1
Co       9.00000000       1.80000000       7.20000000      58.93319400      140        1
Co       7.20000000       0.00000000      10.80000000      58.93319400      141        1
Mn       7.20000000       1.80000000      12.60000000      54.93804400      142        5
Mn       9.00000000       0.00000000      12.60000000      54.93804400      143        5
Mn       9.00000000       1.80000000      10.80000000      54.93804400      144        5
Co       7.20000000       3.60000000       0.00000000      58.93319400      145        1
Cr       7.20000000       5.40000000       1.80000000      51.99610000      146        3
Mn       9.00000000       3.60000000       1.80000000      54.93804400      147        5
Co       9.00000000       5.40000000       0.00000000      58.93319400      148        1
Co       7.20000000       3.60000000       3.60000000      58.93319400      149        1
Fe       7.20000000       5.40000000       5.40000000      55.84500000      150        4
Co       9.00000000       3.60000000       5.40000000      58.93319400      151        1
Cr       9.00000000       5.40000000       3.60000000      51.99610000      152        3
Fe       7.20000000       3.60000000       7.20000000      55.84500000      153        4
Fe       7.20000000       5.40000000       9.00000000      55.84500000      154        4
Mn       9.00000000       3.60000000       9.00000000      54.93804400      155        5
Ni       9.00000000       5.40000000       7.20000000      58.69340000      156        2
Co       7.20000000       3.60000000      10.80000000      58.93319400      157        1
Ni       7.20000000       5.40000000      12.60000000      58.69340000      158        2
Mn       9.00000000       3.60000000      12.60000000      54.93804400      159        5
Mn       9.00000000       5.40000000      10.80000000      54.93804400      160        5
Co       7.20000000       7.20000000       0.00000000      58.93319400      161        1
Cr       7.20000000       9.00000000       1.80000000      51.99610000      162        3
Cr       9.00000000       7.20000000       1.80000000      51.99610000      163        3
Ni       9.00000000       9.00000000       0.00000000      58.69340000      164        2
Cr       7.20000000       7.20000000       3.60000000      51.99610000      165        3
Cr       7.20000000       9.00000000       5.40000000      51.99610000      166        3
Cr       9.00000000       7.20000000       5.40000000      51.99610000      167        3
Cr       9.00000000       9.00000000       3.60000000      51.99610000      168        3
Cr       7.20000000       7.20000000       7.20000000      51.99610000      169        3
Fe       7.20000000       9.00000000       9.00000000      55.84500000      170        4
Mn       9.00000000       7.20000000       9.00000000      54.93804400      171        5
Mn       9.00000000       9.00000000       7.20000000      54.93804400      172        5
Fe       7.20000000       7.20000000      10.80000000      55.84500000      173        4
Co       7.20000000       9.00000000      12.60000000      58.93319400      174        1
Mn       9.00000000       7.20000000      12.60000000      54.93804400      175        5
Mn       9.00000000       9.00000000      10.80000000      54.93804400      176        5
Mn       7.20000000      10.80000000       0.00000000      54.93804400      177        5
Mn       7.20000000      12.60000000       1.80000000      54.93804400      178        5
Co       9.00000000      10.80000000       1.80000000      58.93319400      179        1
Mn       9.00000000      12.60000000       0.00000000      54.93804400      180        5
Fe       7.20000000      10.80000000       3.60000000      55.84500000      181        4
Mn       7.20000000      12.60000000       5.40000000      54.93804400      182        5
Mn       9.00000000      10.80000000       5.40000000      54.93804400      183        5
Mn       9.00000000      12.60000000       3.60000000      54.93804400      184        5
Mn       7.20000000      10.80000000       7.20000000      54.93804400      185        5
Mn       7.20000000      12.60000000       9.00000000      54.93804400      186        5
Mn       9.00000000      10.80000000       9.00000000      54.93804400      187        5
Mn       9.00000000      12.60000000       7.20000000      54.93804400      188        5
Mn       7.20000000      10.80000000      10.80000000      54.93804400      189        5
Co       7.20000000      12.60000000      12.60000000      58.93319400      190        1
Co       9.00000000      10.80000000      12.60000000      58.93319400      191        1
Mn       9.00000000      12.60000000      10.80000000      54.93804400      192        5
Mn      10.80000000       0.00000000       0.00000000      54.93804400      193        5
Ni      10.80000000       1.80000000       1.80000000      58.69340000      194        2
Co      12.60000000       0.00000000       1.80000000      58.93319400      195        1
Ni      12.60000000       1.80000000       0.00000000      58.69340000      196        2
Mn      10.80000000       0.00000000       3.60000000      54.93804400      197        5
Co      10.80000000       1.80000000       5.40000000      58.93319400      198        1
Mn      12.60000000       0.00000000       5.40000000      54.93804400      199        5
Ni      12.60000000       1.80000000       3.60000000      58.69340000      200        2
Mn      10.80000000       0.00000000       7.20000000      54.93804400      201        5
Mn      10.80000000       1.80000000       9.00000000      54.93804400      202        5
Mn      12.60000000       0.00000000       9.00000000      54.93804400      203        5
Co      12.60000000       1.80000000       7.20000000      58.93319400      204        1
Mn      10.80000000       0.00000000      10.80000000      54.93804400      205        5
Mn      10.80000000       1.80000000      12.60000000      54.93804400      206        5
Mn      12.60000000       0.00000000      12.60000000      54.93804400      207        5
Mn      12.60000000       1.80000000      10.80000000      54.93804400      208        5
Mn      10.80000000       3.60000000       0.00000000      54.93804400      209        5
Cr      10.80000000       5.40000000       1.80000000      51.99610000      210        3
Co      12.60000000       3.60000000       1.80000000      58.93319400      211        1
Mn      12.60000000       5.40000000       0.00000000      54.93804400      212        5
Co      10.80000000       3.60000000       3.60000000      58.93319400      213        1
Cr      10.80000000       5.40000000       5.40000000      51.99610000      214        3
Ni      12.60000000       3.60000000       5.40000000      58.69340000      215        2
Cr      12.60000000       5.40000000       3.60000000      51.99610000      216        3
Ni      10.80000000       3.60000000       7.20000000      58.69340000      217        2
Co      10.80000000       5.40000000       9.00000000      58.93319400      218        1
Ni      12.60000000       3.60000000       9.00000000      58.69340000      219        2
Cr      12.60000000       5.40000000       7.20000000      51.99610000      220        3
Mn      10.80000000       3.60000000      10.80000000      54.93804400      221        5
Mn      10.80000000       5.40000000      12.60000000      54.93804400      222        5
Co      12.60000000       3.60000000      12.60000000      58.93319400      223        1
Mn      12.60000000       5.40000000      10.80000000      54.93804400      224        5
Mn      10.80000000       7.20000000       0.00000000      54.93804400      225        5
Co      10.80000000       9.00000000       1.80000000      58.93319400      226        1
Co      12.60000000       7.20000000       1.80000000      58.93319400      227        1
Ni      12.60000000       9.00000000       0.00000000      58.69340000      228        2
Cr      10.80000000       7.20000000       3.60000000      51.99610000      229        3
Fe      10.80000000       9.00000000       5.40000000      55.84500000      230        4
Cr      12.60000000       7.20000000       5.40000000      51.99610000      231        3
Cr      12.60000000       9.00000000       3.60000000      51.99610000      232        3
Fe      10.80000000       7.20000000       7.20000000      55.84500000      233        4
Mn      10.80000000       9.00000000       9.00000000      54.93804400      234        5
Ni      12.60000000       7.20000000       9.00000000      58.69340000      235        2
Co      12.60000000       9.00000000       7.20000000      58.93319400      236        1
Mn      10.80000000       7.20000000      10.80000000      54.93804400      237        5
Co      10.80000000       9.00000000      12.60000000      58.93319400      238        1
Mn      12.60000000       7.20000000      12.60000000      54.93804400      239        5
Co      12.60000000       9.00000000      10.80000000      58.93319400      240        1
Ni      10.80000000      10.80000000       0.00000000      58.69340000      241        2
Ni      10.80000000      12.60000000       1.80000000      58.69340000      242        2
Co      12.60000000      10.80000000       1.80000000      58.93319400      243        1
Co      12.60000000      12.60000000       0.00000000      58.93319400      244        1
Ni      10.80000000      10.80000000       3.60000000      58.69340000      245        2
Mn      10.80000000      12.60000000       5.40000000      54.93804400      246        5
Ni      12.60000000      10.80000000       5.40000000      58.69340000      247        2
Co      12.60000000      12.60000000       3.60000000      58.93319400      248        1
Mn      10.80000000      10.80000000       7.20000000      54.93804400      249        5
Mn      10.80000000      12.60000000       9.00000000      54.93804400      250        5
Mn      12.60000000      10.80000000       9.00000000      54.93804400      251        5
Mn      12.60000000      12.60000000       7.20000000      54.93804400      252        5
Mn      10.80000000      10.80000000      10.80000000      54.93804400      253        5
Mn      10.80000000      12.60000000      12.60000000      54.93804400      254        5
Co      12.60000000      10.80000000      12.60000000      58.93319400      255        1
Mn      12.60000000      12.60000000      10.80000000      54.93804400      256        5
