256
Lattice="14.4 0.0 0.0 0.0 14.4 0.0 0.0 0.0 14.4" Properties=species:S:1:pos:R:3:masses:R:1:id:I:1:type:I:1 comment="(written by ASE)" energy=-1022.00282259464 pbc="T T T"
Mn       0.00000000       0.00000000       0.00000000      54.93804400        1        5
Mn       0.00000000       1.80000000       1.80000000      54.93804400        2        5
Mn       1.80000000       0.00000000       1.80000000      54.93804400        3        5
Ni       1.80000000       1.80000000       0.00000000      58.69340000        4        2
Mn       0.00000000       0.00000000       3.60000000      54.93804400        5        5
Ni       0.00000000       1.80000000       5.40000000      58.69340000        6        2
Ni       1.80000000       0.00000000       5.40000000      58.69340000        7        2
Mn       1.80000000       1.80000000       3.60000000      54.93804400        8        5
Ni       0.00000000       0.00000000       7.20000000      58.69340000        9        2
Ni       0.00000000       1.80000000       9.00000000      58.69340000       10        2
Fe       1.80000000       0.00000000       9.00000000      55.84500000       11        4
Co       1.80000000       1.80000000       7.20000000      58.93319400       12        1
Mn       0.00000000       0.00000000      10.80000000      54.93804400       13        5
Ni       0.00000000       1.80000000      12.60000000      58.69340000       14        2
Mn       1.80000000       0.00000000      12.60000000      54.93804400       15        5
Cr       1.80000000       1.80000000      10.80000000      51.99610000       16        3
Mn       0.00000000       3.60000000       0.00000000      54.93804400       17        5
Cr       0.00000000       5.40000000       1.80000000      51.99610000       18        3
Ni       1.80000000       3.60000000       1.80000000      58.69340000       19        2
Co       1.80000000       5.40000000       0.00000000      58.93319400       20        1
Ni       0.00000000       3.60000000       3.60000000      58.69340000       21        2
Co       0.00000000       5.40000000       5.40000000      58.93319400       22        1
Ni       1.80000000       3.60000000       5.40000000      58.69340000       23        2
Ni       1.80000000       5.40000000       3.60000000      58.69340000       24        2
Ni       0.00000000       3.60000000       7.20000000      58.69340000       25        2
Co       0.00000000       5.40000000       9.00000000      58.93319400       26        1
Ni       1.80000000       3.60000000       9.00000000      58.69340000       27        2
Co       1.80000000       5.40000000       7.20000000      58.93319400       28        1
Co       0.00000000       3.60000000      10.80000000      58.93319400       29        1
Cr       0.00000000       5.40000000      12.60000000      51.99610000       30        3
Fe       1.80000000       3.60000000      12.60000000      55.84500000       31        4
Co       1.80000000       5.40000000      10.80000000      58.93319400       32        1
Fe       0.00000000       7.20000000       0.00000000      55.84500000       33        4
Cr       0.00000000       9.00000000       1.80000000      51.99610000       34        3
Fe       1.80000000       7.20000000       1.80000000      55.84500000       35        4
Cr       1.80000000       9.00000000       0.00000000      51.99610000       36        3
Fe       0.00000000       7.20000000       3.60000000      55.84500000       37        4
Cr       0.00000000       9.00000000       5.40000000      51.99610000       38        3
Fe       1.80000000       7.20000000       5.40000000      55.84500000       39        4
Co       1.80000000       9.00000000       3.60000000      58.93319400       40        1
Fe       0.00000000       7.20000000       7.20000000      55.84500000       41        4
Co       0.00000000       9.00000000       9.00000000      58.93319400       42        1
Fe       1.80000000       7.20000000       9.00000000      55.84500000       43        4
Co       1.80000000       9.00000000       7.20000000      58.93319400       44        1
Fe       0.00000000       7.20000000      10.80000000      55.84500000       45        4
Co       0.00000000       9.00000000      12.60000000      58.93319400       46        1
Fe       1.80000000       7.20000000      12.60000000      55.84500000       47        4
Fe       1.80000000       9.00000000      10.80000000      55.84500000       48        4
Mn       0.00000000      10.80000000       0.00000000      54.93804400       49        5
Mn       0.00000000      12.60000000       1.80000000      54.93804400       50        5
Mn       1.80000000      10.80000000       1.80000000      54.93804400       51        5
Mn       1.80000000      12.60000000       0.00000000      54.93804400       52        5
Mn       0.00000000      10.80000000       3.60000000      54.93804400       53        5
Mn       0.00000000      12.60000000       5.40000000      54.93804400       54        5
Ni       1.80000000      10.80000000       5.40000000      58.69340000       55        2
Mn       1.80000000      12.60000000       3.60000000      54.93804400       56        5
Ni       0.00000000      10.80000000       7.20000000      58.69340000       57        2
Cr       0.00000000      12.60000000       9.00000000      51.99610000       58        3
Fe       1.80000000      10.80000000       9.00000000      55.84500000       59        4
Co       1.80000000      12.60000000       7.20000000      58.93319400       60        1
Co       0.00000000      10.80000000      10.80000000      58.93319400       61        1
Cr       0.00000000      12.60000000      12.60000000      51.99610000       62        3
Ni       1.80000000      10.80000000      12.60000000      58.69340000       63        2
Fe       1.80000000      12.60000000      10.80000000      55.84500000       64        4
Mn       3.60000000       0.00000000       0.00000000      54.93804400       65        5
Ni       3.60000000       1.80000000       1.80000000      58.69340000       66        2
Cr       5.40000000       0.00000000       1.80000000      51.99610000       67        3
Fe       5.40000000       1.80000000       0.00000000      55.84500000       68        4
Mn       3.60000000       0.00000000       3.60000000      54.93804400       69        5
Cr       3.60000000       1.80000000       5.40000000      51.99610000       70        3
Fe       5.40000000       0.00000000       5.40000000      55.84500000       71        4
Fe       5.40000000       1.80000000       3.60000000      55.84500000       72        4
Fe       3.60000000       0.00000000       7.20000000      55.84500000       73        4
Co       3.60000000       1.80000000       9.00000000      58.93319400       74        1
Co       5.40000000       0.00000000       9.00000000      58.93319400       75        1
Ni       5.40000000       1.80000000       7.20000000      58.69340000       76        2
Fe       3.60000000       0.00000000      10.80000000      55.84500000       77        4
Co       3.60000000       1.80000000      12.60000000      58.93319400       78        1
Cr       5.40000000       0.00000000      12.60000000      51.99610000       79        3
Fe       5.40000000       1.80000000      10.80000000      55.84500000       80        4
Co       3.60000000       3.60000000       0.00000000      58.93319400       81        1
Ni       3.60000000       5.40000000       1.80000000      58.69340000       82        2
Cr       5.40000000       3.60000000       1.80000000      51.99610000       83        3
Co       5.40000000       5.40000000       0.00000000      58.93319400       84        1
Mn       3.60000000       3.60000000       3.60000000      54.93804400       85        5
Ni       3.60000000       5.40000000       5.40000000      58.69340000       86        2
Mn       5.40000000       3.60000000       5.40000000      54.93804400       87        5
Mn       5.40000000       5.40000000       3.60000000      54.93804400       88        5
Ni       3.60000000       3.60000000       7.20000000      58.69340000       89        2
Fe       3.60000000       5.40000000       9.00000000      55.84500000       90        4
Fe       5.40000000       3.60000000       9.00000000      55.84500000       91        4
Mn       5.40000000       5.40000000       7.20000000      54.93804400       92        5
Fe       3.60000000       3.60000000      10.80000000      55.84500000       93        4
Cr       3.60000000       5.40000000      12.60000000      51.99610000       94        3
Fe       5.40000000       3.60000000      12.60000000      55.84500000       95        4
Co       5.40000000       5.40000000      10.80000000      58.93319400       96        1
Fe       3.60000000       7.20000000       0.00000000      55.84500000       97        4
Cr       3.60000000       9.00000000       1.80000000      51.99610000       98        3
Mn       5.40000000       7.20000000       1.80000000      54.93804400       99        5
Ni       5.40000000       9.00000000       0.00000000      58.69340000      100        2
Cr       3.60000000       7.20000000       3.60000000      51.99610000      101        3
Fe       3.60000000       9.00000000       5.40000000      55.84500000      102        4
Mn       5.40000000       7.20000000       5.40000000      54.93804400      103        5
Mn       5.40000000       9.00000000       3.60000000      54.93804400      104        5
Ni       3.60000000       7.20000000       7.20000000      58.69340000      105        2
Co       3.60000000       9.00000000       9.00000000      58.93319400      106        1
Ni       5.40000000       7.20000000       9.00000000      58.69340000      107        2
Fe       5.40000000       9.00000000       7.20000000      55.84500000      108        4
Co       3.60000000       7.20000000      10.80000000      58.93319400      109        1
Co       3.60000000       9.00000000      12.60000000      58.93319400      110        1
Ni       5.40000000       7.20000000      12.60000000      58.69340000      111        2
Fe       5.40000000       9.00000000      10.80000000      55.84500000      112        4
Ni       3.60000000      10.80000000       0.00000000      58.69340000      113        2
Mn       3.60000000      12.60000000       1.80000000      54.93804400      114        5
Mn       5.40000000      10.80000000       1.80000000      54.93804400      115        5
Ni       5.40000000      12.60000000       0.00000000      58.69340000      116        2
Cr       3.60000000      10.80000000       3.60000000      51.99610000      117        3
Cr       3.60000000      12.60000000       5.40000000      51.99610000      118        3
Fe       5.40000000      10.80000000       5.40000000      55.84500000      119        4
Mn       5.40000000      12.60000000       3.60000000      54.93804400      120        5
Cr       3.60000000      10.80000000       7.20000000      51.99610000      121        3
Co       3.60000000      12.60000000       9.00000000      58.93319400      122        1
Fe       5.40000000      10.80000000       9.00000000      55.84500000      123        4
Co       5.40000000      12.60000000       7.20000000      58.93319400      124        1
Co       3.60000000      10.80000000      10.80000000      58.93319400      125        1
Ni       3.60000000      12.60000000      12.60000000      58.69340000      126        2
Co       5.40000000      10.80000000      12.60000000      58.93319400      127        1
Co       5.40000000      12.60000000      10.80000000      58.93319400      128        1
Co       7.20000000       0.00000000       0.00000000      58.93319400      129        1
Fe       7.20000000       1.80000000       1.80000000      55.84500000      130        4
Co       9.00000000       0.00000000       1.80000000      58.93319400      131        1
Fe       9.00000000       1.80000000       0.00000000      55.84500000      132        4
Fe       7.20000000       0.00000000       3.60000000      55.84500000      133        4
Cr       7.20000000       1.80000000       5.40000000      51.99610000      134        3
Fe       9.00000000       0.00000000       5.40000000      55.84500000      135        4
Co       9.00000000       1.80000000       3.60000000      58.93319400      136        1
Fe       7.20000000       0.00000000       7.20000000      55.84500000      137        4
Cr       7.20000000       1.80000000       9.00000000      51.99610000      138        3
Cr       9.00000000       0.00000000       9.00000000      51.99610000      139        3
Co       9.00000000       1.80000000       7.20000000      58.93319400      140        1
Co       7.20000000       0.00000000      10.80000000      58.93319400      141        1
Fe       7.20000000       1.80000000      12.60000000      55.84500000      142        4
Cr       9.00000000       0.00000000      12.60000000      51.99610000      143        3
Mn       9.00000000       1.80000000      10.80000000      54.93804400      144        5
Co       7.20000000       3.60000000       0.00000000      58.93319400      145        1
Mn       7.20000000       5.40000000       1.80000000      54.93804400      146        5
Cr       9.00000000       3.60000000       1.80000000      51.99610000      147        3
Mn       9.00000000       5.40000000       0.00000000      54.93804400      148        5
Cr       7.20000000       3.60000000       3.60000000      51.99610000      149        3
Ni       7.20000000       5.40000000       5.40000000      58.69340000      150        2
Fe       9.00000000       3.60000000       5.40000000      55.84500000      151        4
Co       9.00000000       5.40000000       3.60000000      58.93319400      152        1
Ni       7.20000000       3.60000000       7.20000000      58.69340000      153        2
Mn       7.20000000       5.40000000       9.00000000      54.93804400      154        5
Ni       9.00000000       3.60000000       9.00000000      58.69340000      155        2
Cr       9.00000000       5.40000000       7.20000000      51.99610000      156        3
Cr       7.20000000       3.60000000      10.80000000      51.99610000      157        3
Cr       7.20000000       5.40000000      12.60000000      51.99610000      158        3
Cr       9.00000000       3.60000000      12.60000000      51.99610000      159        3
Mn       9.00000000       5.40000000      10.80000000      54.93804400      160        5
Mn       7.20000000       7.20000000       0.00000000      54.93804400      161        5
Mn       7.20000000       9.00000000       1.80000000      54.93804400      162        5
Ni       9.00000000       7.20000000       1.80000000      58.69340000      163        2
Mn       9.00000000       9.00000000       0.00000000      54.93804400      164        5
Cr       7.20000000       7.20000000       3.60000000      51.99610000      165        3
Cr       7.20000000       9.00000000       5.40000000      51.99610000      166        3
Fe       9.00000000       7.20000000       5.40000000      55.84500000      167        4
Co       9.00000000       9.00000000       3.60000000      58.93319400      168        1
Mn       7.20000000       7.20000000       7.20000000      54.93804400      169        5
Cr       7.20000000       9.00000000       9.00000000      51.99610000      170        3
Mn       9.00000000       7.20000000       9.00000000      54.93804400      171        5
Cr       9.00000000       9.00000000       7.20000000      51.99610000      172        3
Mn       7.20000000       7.20000000      10.80000000      54.93804400      173        5
Ni       7.20000000       9.00000000      12.60000000      58.69340000      174        2
Mn       9.00000000       7.20000000      12.60000000      54.93804400      175        5
Mn       9.00000000       9.00000000      10.80000000      54.93804400      176        5
Ni       7.20000000      10.80000000       0.00000000      58.69340000      177        2
Ni       7.20000000      12.60000000       1.80000000      58.69340000      178        2
Fe       9.00000000      10.80000000       1.80000000      55.84500000      179        4
Co       9.00000000      12.60000000       0.00000000      58.93319400      180        1
Cr       7.20000000      10.80000000       3.60000000      51.99610000      181        3
Fe       7.20000000      12.60000000       5.40000000      55.84500000      182        4
Fe       9.00000000      10.80000000       5.40000000      55.84500000      183        4
Co       9.00000000      12.60000000       3.60000000      58.93319400      184        1
Co       7.20000000      10.80000000       7.20000000      58.93319400      185        1
Fe       7.20000000      12.60000000       9.00000000      55.84500000      186        4
Mn       9.00000000      10.80000000       9.00000000      54.93804400      187        5
Co       9.00000000      12.60000000       7.20000000      58.93319400      188        1
Cr       7.20000000      10.80000000      10.80000000      51.99610000      189        3
Fe       7.20000000      12.60000000      12.60000000      55.84500000      190        4
Ni       9.00000000      10.80000000      12.60000000      58.69340000      191        2
Mn       9.00000000      12.60000000      10.80000000      54.93804400      192        5
Cr      10.80000000       0.00000000       0.00000000      51.99610000      193        3
Cr      10.80000000       1.80000000       1.80000000      51.99610000      194        3
Mn      12.60000000       0.00000000       1.80000000      54.93804400      195        5
Mn      12.60000000       1.80000000       0.00000000      54.93804400      196        5
Cr      10.80000000       0.00000000       3.60000000      51.99610000      197        3
Cr      10.80000000       1.80000000       5.40000000      51.99610000      198        3
Mn      12.60000000       0.00000000       5.40000000      54.93804400      199        5
Mn      12.60000000       1.80000000       3.60000000      54.93804400      200        5
Ni      10.80000000       0.00000000       7.20000000      58.69340000      201        2
Ni      10.80000000       1.80000000       9.00000000      58.69340000      202        2
Ni      12.60000000       0.00000000       9.00000000      58.69340000      203        2
Co      12.60000000       1.80000000       7.20000000      58.93319400      204        1
Mn      10.80000000       0.00000000      10.80000000      54.93804400      205        5
Mn      10.80000000       1.80000000      12.60000000      54.93804400      206        5
Mn      12.60000000       0.00000000      12.60000000      54.93804400      207        5
Ni      12.60000000       1.80000000      10.80000000      58.69340000      208        2
Mn      10.80000000       3.60000000       0.00000000      54.93804400      209        5
Fe      10.80000000       5.40000000       1.80000000      55.84500000      210        4
Cr      12.60000000       3.60000000       1.80000000      51.99610000      211        3
Co      12.60000000       5.40000000       0.00000000      58.93319400      212        1
Fe      10.80000000       3.60000000       3.60000000      55.84500000      213        4
Fe      10.80000000       5.40000000       5.40000000      55.84500000      214        4
Co      12.60000000       3.60000000       5.40000000      58.93319400      215        1
Co      12.60000000       5.40000000       3.60000000      58.93319400      216        1
Fe      10.80000000       3.60000000       7.20000000      55.84500000      217        4
Cr      10.80000000       5.40000000       9.00000000      51.99610000      218        3
Co      12.60000000       3.60000000       9.00000000      58.93319400      219        1
Cr      12.60000000       5.40000000       7.20000000      51.99610000      220        3
Mn      10.80000000       3.60000000      10.80000000      54.93804400      221        5
Mn      10.80000000       5.40000000      12.60000000      54.93804400      222        5
Ni      12.60000000       3.60000000      12.60000000      58.69340000      223        2
Fe      12.60000000       5.40000000      10.80000000      55.84500000      224        4
Cr      10.80000000       7.20000000       0.00000000      51.99610000      225        3
Co      10.80000000       9.00000000       1.80000000      58.93319400      226        1
Fe      12.60000000       7.20000000       1.80000000      55.84500000      227        4
Cr      12.60000000       9.00000000       0.00000000      51.99610000      228        3
Fe      10.80000000       7.20000000       3.60000000      55.84500000      229        4
Co      10.80000000       9.00000000       5.40000000      58.93319400      230        1
Fe      12.60000000       7.20000000       5.40000000      55.84500000      231        4
Cr      12.60000000       9.00000000       3.60000000      51.99610000      232        3
Fe      10.80000000       7.20000000       7.20000000      55.84500000      233        4
Mn      10.80000000       9.00000000       9.00000000      54.93804400      234        5
Co      12.60000000       7.20000000       9.00000000      58.93319400      235        1
Co      12.60000000       9.00000000       7.20000000      58.93319400      236        1
Cr      10.80000000       7.20000000      10.80000000      51.99610000      237        3
Mn      10.80000000       9.00000000      12.60000000      54.93804400      238        5
Co      12.60000000       7.20000000      12.60000000      58.93319400      239        1
Ni      12.60000000       9.00000000      10.80000000      58.69340000      240        2
Ni      10.80000000      10.80000000       0.00000000      58.69340000      241        2
Fe      10.80000000      12.60000000       1.80000000      55.84500000      242        4
Mn      12.60000000      10.80000000       1.80000000      54.93804400      243        5
Mn      12.60000000      12.60000000       0.00000000      54.93804400      244        5
Fe      10.80000000      10.80000000       3.60000000      55.84500000      245        4
Cr      10.80000000      12.60000000       5.40000000      51.99610000      246        3
Ni      12.60000000      10.80000000       5.40000000      58.69340000      247        2
Cr      12.60000000      12.60000000       3.60000000      51.99610000      248        3
Ni      10.80000000      10.80000000       7.20000000      58.69340000      249        2
Mn      10.80000000      12.60000000       9.00000000      54.93804400      250        5
Ni      12.60000000      10.80000000       9.00000000      58.69340000      251        2
Mn      12.60000000      12.60000000       7.20000000      54.93804400      252        5
Mn      10.80000000      10.80000000      10.80000000      54.93804400      253        5
Ni      10.80000000      12.60000000      12.60000000      58.69340000      254        2
Mn      12.60000000      10.80000000      12.60000000      54.93804400      255        5
Mn      12.60000000      12.60000000      10.80000000      54.93804400      256        5
