256
Lattice="14.4 0.0 0.0 0.0 14.4 0.0 0.0 0.0 14.4" Properties=species:S:1:pos:R:3:masses:R:1:id:I:1:type:I:1 comment="(written by ASE)" energy=-1017.40367652 pbc="T T T"
Mn       0.00000000       0.00000000       0.00000000      54.93804400        1        5
Mn       0.00000000       1.80000000       1.80000000      54.93804400        2        5
Fe       1.80000000       0.00000000       1.80000000      55.84500000        3        4
Mn       1.80000000       1.80000000       0.00000000      54.93804400        4        5
Fe       0.00000000       0.00000000       3.60000000      55.84500000        5        4
Co       0.00000000       1.80000000       5.40000000      58.93319400        6        1
Co       1.80000000       0.00000000       5.40000000      58.93319400        7        1
Co       1.80000000       1.80000000       3.60000000      58.93319400        8        1
Co       0.00000000       0.00000000       7.20000000      58.93319400        9        1
Co       0.00000000       1.80000000       9.00000000      58.93319400       10        1
Co       1.80000000       0.00000000       9.00000000      58.93319400       11        1
Co       1.80000000       1.80000000       7.20000000      58.93319400       12        1
Mn       0.00000000       0.00000000      10.80000000      54.93804400       13        5
Mn       0.00000000       1.80000000      12.60000000      54.93804400       14        5
Mn       1.80000000       0.00000000      12.60000000      54.93804400       15        5
Mn       1.80000000       1.80000000      10.80000000      54.93804400       16        5
Mn       0.00000000       3.60000000       0.00000000      54.93804400       17        5
Fe       0.00000000       5.40000000       1.80000000      55.84500000       18        4
Fe       1.80000000       3.60000000       1.80000000      55.84500000       19        4
Fe       1.80000000       5.40000000       0.00000000      55.84500000       20        4
Mn       0.00000000       3.60000000       3.60000000      54.93804400       21        5
Cr       0.00000000       5.40000000       5.40000000      51.99610000       22        3
Co       1.80000000       3.60000000       5.40000000      58.93319400       23        1
Ni       1.80000000       5.40000000       3.60000000      58.69340000       24        2
Co       0.00000000       3.60000000       7.20000000      58.93319400       25        1
Co       0.00000000       5.40000000       9.00000000      58.93319400       26        1
Co       1.80000000       3.60000000       9.00000000      58.93319400       27        1
Fe       1.80000000       5.40000000       7.20000000      55.84500000       28        4
Mn       0.00000000       3.60000000      10.80000000      54.93804400       29        5
Mn       0.00000000       5.40000000      12.60000000      54.93804400       30        5
Mn       1.80000000       3.60000000      12.60000000      54.93804400       31        5
Co       1.80000000       5.40000000      10.80000000      58.93319400       32        1
Ni       0.00000000       7.20000000       0.00000000      58.69340000       33        2
Ni       0.00000000       9.00000000       1.80000000      58.69340000       34        2
Cr       1.80000000       7.20000000       1.80000000      51.99610000       35        3
Cr       1.80000000       9.00000000       0.00000000      51.99610000       36        3
Cr       0.00000000       7.20000000       3.60000000      51.99610000       37        3
Cr       0.00000000       9.00000000       5.40000000      51.99610000       38        3
Ni       1.80000000       7.20000000       5.40000000      58.69340000       39        2
Ni       1.80000000       9.00000000       3.60000000      58.69340000       40        2
Cr       0.00000000       7.20000000       7.20000000      51.99610000       41        3
Co       0.00000000       9.00000000       9.00000000      58.93319400       42        1
Co       1.80000000       7.20000000       9.00000000      58.93319400       43        1
Co       1.80000000       9.00000000       7.20000000      58.93319400       44        1
Fe       0.00000000       7.20000000      10.80000000      55.84500000       45        4
Cr       0.00000000       9.00000000      12.60000000      51.99610000       46        3
Ni       1.80000000       7.20000000      12.60000000      58.69340000       47        2
Co       1.80000000       9.00000000      10.80000000      58.93319400       48        1
Ni       0.00000000      10.80000000       0.00000000      58.69340000       49        2
Ni       0.00000000      12.60000000       1.80000000      58.69340000       50        2
Cr       1.80000000      10.80000000       1.80000000      51.99610000       51        3
Fe       1.80000000      12.60000000       0.00000000      55.84500000       52        4
Ni       0.00000000      10.80000000       3.60000000      58.69340000       53        2
Co       0.00000000      12.60000000       5.40000000      58.93319400       54        1
Fe       1.80000000      10.80000000       5.40000000      55.84500000       55        4
Ni       1.80000000      12.60000000       3.60000000      58.69340000       56        2
Co       0.00000000      10.80000000       7.20000000      58.93319400       57        1
Co       0.00000000      12.60000000       9.00000000      58.93319400       58        1
Co       1.80000000      10.80000000       9.00000000      58.93319400       59        1
Co       1.80000000      12.60000000       7.20000000      58.93319400       60        1
Cr       0.00000000      10.80000000      10.80000000      51.99610000       61        3
Fe       0.00000000      12.60000000      12.60000000      55.84500000       62        4
Fe       1.80000000      10.80000000      12.60000000      55.84500000       63        4
Co       1.80000000      12.60000000      10.80000000      58.93319400       64        1
Fe       3.60000000       0.00000000       0.00000000      55.84500000       65        4
Co       3.60000000       1.80000000       1.80000000      58.93319400       66        1
Co       5.40000000       0.00000000       1.80000000      58.93319400       67        1
Fe       5.40000000       1.80000000       0.00000000      55.84500000       68        4
Co       3.60000000       0.00000000       3.60000000      58.93319400       69        1
Co       3.60000000       1.80000000       5.40000000      58.93319400       70        1
Cr       5.40000000       0.00000000       5.40000000      51.99610000       71        3
Co       5.40000000       1.80000000       3.60000000      58.93319400       72        1
Co       3.60000000       0.00000000       7.20000000      58.93319400       73        1
Co       3.60000000       1.80000000       9.00000000      58.93319400       74        1
Fe       5.40000000       0.00000000       9.00000000      55.84500000       75        4
Cr       5.40000000       1.80000000       7.20000000      51.99610000       76        3
Mn       3.60000000       0.00000000      10.80000000      54.93804400       77        5
Mn       3.60000000       1.80000000      12.60000000      54.93804400       78        5
Fe       5.40000000       0.00000000      12.60000000      55.84500000       79        4
Fe       5.40000000       1.80000000      10.80000000      55.84500000       80        4
Fe       3.60000000       3.60000000       0.00000000      55.84500000       81        4
Ni       3.60000000       5.40000000       1.80000000      58.69340000       82        2
Fe       5.40000000       3.60000000       1.80000000      55.84500000       83        4
Ni       5.40000000       5.40000000       0.00000000      58.69340000       84        2
Fe       3.60000000       3.60000000       3.60000000      55.84500000       85        4
Ni       3.60000000       5.40000000       5.40000000      58.69340000       86        2
Cr       5.40000000       3.60000000       5.40000000      51.99610000       87        3
Cr       5.40000000       5.40000000       3.60000000      51.99610000       88        3
Fe       3.60000000       3.60000000       7.20000000      55.84500000       89        4
Cr       3.60000000       5.40000000       9.00000000      51.99610000       90        3
Ni       5.40000000       3.60000000       9.00000000      58.69340000       91        2
Cr       5.40000000       5.40000000       7.20000000      51.99610000       92        3
Fe       3.60000000       3.60000000      10.80000000      55.84500000       93        4
Cr       3.60000000       5.40000000      12.60000000      51.99610000       94        3
Cr       5.40000000       3.60000000      12.60000000      51.99610000       95        3
Ni       5.40000000       5.40000000      10.80000000      58.69340000       96        2
Fe       3.60000000       7.20000000       0.00000000      55.84500000       97        4
Ni       3.60000000       9.00000000       1.80000000      58.69340000       98        2
Ni       5.40000000       7.20000000       1.80000000      58.69340000       99        2
Fe       5.40000000       9.00000000       0.00000000      55.84500000      100        4
Cr       3.60000000       7.20000000       3.60000000      51.99610000      101        3
Cr       3.60000000       9.00000000       5.40000000      51.99610000      102        3
Ni       5.40000000       7.20000000       5.40000000      58.69340000      103        2
Cr       5.40000000       9.00000000       3.60000000      51.99610000      104        3
Ni       3.60000000       7.20000000       7.20000000      58.69340000      105        2
Co       3.60000000       9.00000000       9.00000000      58.93319400      106        1
Fe       5.40000000       7.20000000       9.00000000      55.84500000      107        4
Cr       5.40000000       9.00000000       7.20000000      51.99610000      108        3
Co       3.60000000       7.20000000      10.80000000      58.93319400      109        1
Co       3.60000000       9.00000000      12.60000000      58.93319400      110        1
Co       5.40000000       7.20000000      12.60000000      58.93319400      111        1
Co       5.40000000       9.00000000      10.80000000      58.93319400      112        1
Fe       3.60000000      10.80000000       0.00000000      55.84500000      113        4
Fe       3.60000000      12.60000000       1.80000000      55.84500000      114        4
Cr       5.40000000      10.80000000       1.80000000      51.99610000      115        3
Co       5.40000000      12.60000000       0.00000000      58.93319400      116        1
Ni       3.60000000      10.80000000       3.60000000      58.69340000      117        2
Fe       3.60000000      12.60000000       5.40000000      55.84500000      118        4
Ni       5.40000000      10.80000000       5.40000000      58.69340000      119        2
Ni       5.40000000      12.60000000       3.60000000      58.69340000      120        2
Co       3.60000000      10.80000000       7.20000000      58.93319400      121        1
Co       3.60000000      12.60000000       9.00000000      58.93319400      122        1
Co       5.40000000      10.80000000       9.00000000      58.93319400      123        1
Cr       5.40000000      12.60000000       7.20000000      51.99610000      124        3
Co       3.60000000      10.80000000      10.80000000      58.93319400      125        1
Co       3.60000000      12.60000000      12.60000000      58.93319400      126        1
Co       5.40000000      10.80000000      12.60000000      58.93319400      127        1
Fe       5.40000000      12.60000000      10.80000000      55.84500000      128        4
Mn       7.20000000       0.00000000       0.00000000      54.93804400      129        5
Mn       7.20000000       1.80000000       1.80000000      54.93804400      130        5
Mn       9.00000000       0.00000000       1.80000000      54.93804400      131        5
Mn       9.00000000       1.80000000       0.00000000      54.93804400      132        5
Fe       7.20000000       0.00000000       3.60000000      55.84500000      133        4
Ni       7.20000000       1.80000000       5.40000000      58.69340000      134        2
Cr       9.00000000       0.00000000       5.40000000      51.99610000      135        3
Cr       9.00000000       1.80000000       3.60000000      51.99610000      136        3
Ni       7.20000000       0.00000000       7.20000000      58.69340000      137        2
Ni       7.20000000       1.80000000       9.00000000      58.69340000      138        2
Fe       9.00000000       0.00000000       9.00000000      55.84500000      139        4
Cr       9.00000000       1.80000000       7.20000000      51.99610000      140        3
Mn       7.20000000       0.00000000      10.80000000      54.93804400      141        5
Mn       7.20000000       1.80000000      12.60000000      54.93804400      142        5
Mn       9.00000000       0.00000000      12.60000000      54.93804400      143        5
Mn       9.00000000       1.80000000      10.80000000      54.93804400      144        5
Fe       7.20000000       3.60000000       0.00000000      55.84500000      145        4
Cr       7.20000000       5.40000000       1.80000000      51.99610000      146        3
Fe       9.00000000       3.60000000       1.80000000      55.84500000      147        4
Fe       9.00000000       5.40000000       0.00000000      55.84500000      148        4
Ni       7.20000000       3.60000000       3.60000000      58.69340000      149        2
Cr       7.20000000       5.40000000       5.40000000      51.99610000      150        3
Cr       9.00000000       3.60000000       5.40000000      51.99610000      151        3
Ni       9.00000000       5.40000000       3.60000000      58.69340000      152        2
Cr       7.20000000       3.60000000       7.20000000      51.99610000      153        3
Cr       7.20000000       5.40000000       9.00000000      51.99610000      154        3
Fe       9.00000000       3.60000000       9.00000000      55.84500000      155        4
Ni       9.00000000       5.40000000       7.20000000      58.69340000      156        2
Cr       7.20000000       3.60000000      10.80000000      51.99610000      157        3
Ni       7.20000000       5.40000000      12.60000000      58.69340000      158        2
Mn       9.00000000       3.60000000      12.60000000      54.93804400      159        5
Mn       9.00000000       5.40000000      10.80000000      54.93804400      160        5
Fe       7.20000000       7.20000000       0.00000000      55.84500000      161        4
Co       7.20000000       9.00000000       1.80000000      58.93319400      162        1
Cr       9.00000000       7.20000000       1.80000000      51.99610000      163        3
Mn       9.00000000       9.00000000       0.00000000      54.93804400      164        5
Cr       7.20000000       7.20000000       3.60000000      51.99610000      165        3
Ni       7.20000000       9.00000000       5.40000000      58.69340000      166        2
Cr       9.00000000       7.20000000       5.40000000      51.99610000      167        3
Ni       9.00000000       9.00000000       3.60000000      58.69340000      168        2
Ni       7.20000000       7.20000000       7.20000000      58.69340000      169        2
Fe       7.20000000       9.00000000       9.00000000      55.84500000      170        4
Mn       9.00000000       7.20000000       9.00000000      54.93804400      171        5
Cr       9.00000000       9.00000000       7.20000000      51.99610000      172        3
Fe       7.20000000       7.20000000      10.80000000      55.84500000      173        4
Mn       7.20000000       9.00000000      12.60000000      54.93804400      174        5
Mn       9.00000000       7.20000000      12.60000000      54.93804400      175        5
Mn       9.00000000       9.00000000      10.80000000      54.93804400      176        5
Co       7.20000000      10.80000000       0.00000000      58.93319400      177        1
Co       7.20000000      12.60000000       1.80000000      58.93319400      178        1
Co       9.00000000      10.80000000       1.80000000      58.93319400      179        1
Co       9.00000000      12.60000000       0.00000000      58.93319400      180        1
Cr       7.20000000      10.80000000       3.60000000      51.99610000      181        3
Ni       7.20000000      12.60000000       5.40000000      58.69340000      182        2
Cr       9.00000000      10.80000000       5.40000000      51.99610000      183        3
Fe       9.00000000      12.60000000       3.60000000      55.84500000      184        4
Ni       7.20000000      10.80000000       7.20000000      58.69340000      185        2
Fe       7.20000000      12.60000000       9.00000000      55.84500000      186        4
Fe       9.00000000      10.80000000       9.00000000      55.84500000      187        4
Cr       9.00000000      12.60000000       7.20000000      51.99610000      188        3
Fe       7.20000000      10.80000000      10.80000000      55.84500000      189        4
Co       7.20000000      12.60000000      12.60000000      58.93319400      190        1
Mn       9.00000000      10.80000000      12.60000000      54.93804400      191        5
Mn       9.00000000      12.60000000      10.80000000      54.93804400      192        5
Mn      10.80000000       0.00000000       0.00000000      54.93804400      193        5
Mn      10.80000000       1.80000000       1.80000000      54.93804400      194        5
Mn      12.60000000       0.00000000       1.80000000      54.93804400      195        5
Mn      12.60000000       1.80000000       0.00000000      54.93804400      196        5
Mn      10.80000000       0.00000000       3.60000000      54.93804400      197        5
Mn      10.80000000       1.80000000       5.40000000      54.93804400      198        5
Mn      12.60000000       0.00000000       5.40000000      54.93804400      199        5
Mn      12.60000000       1.80000000       3.60000000      54.93804400      200        5
Ni      10.80000000       0.00000000       7.20000000      58.69340000      201        2
Mn      10.80000000       1.80000000       9.00000000      54.93804400      202        5
Fe      12.60000000       0.00000000       9.00000000      55.84500000      203        4
Co      12.60000000       1.80000000       7.20000000      58.93319400      204        1
Mn      10.80000000       0.00000000      10.80000000      54.93804400      205        5
Mn      10.80000000       1.80000000      12.60000000      54.93804400      206        5
Mn      12.60000000       0.00000000      12.60000000      54.93804400      207        5
Mn      12.60000000       1.80000000      10.80000000      54.93804400      208        5
Mn      10.80000000       3.60000000       0.00000000      54.93804400      209        5
Fe      10.80000000       5.40000000       1.80000000      55.84500000      210        4
Mn      12.60000000       3.60000000       1.80000000      54.93804400      211        5
Mn      12.60000000       5.40000000       0.00000000      54.93804400      212        5
Mn      10.80000000       3.60000000       3.60000000      54.93804400      213        5
Cr      10.80000000       5.40000000       5.40000000      51.99610000      214        3
Fe      12.60000000       3.60000000       5.40000000      55.84500000      215        4
Fe      12.60000000       5.40000000       3.60000000      55.84500000      216        4
Fe      10.80000000       3.60000000       7.20000000      55.84500000      217        4
Mn      10.80000000       5.40000000       9.00000000      54.93804400      218        5
Mn      12.60000000       3.60000000       9.00000000      54.93804400      219        5
Ni      12.60000000       5.40000000       7.20000000      58.69340000      220        2
Mn      10.80000000       3.60000000      10.80000000      54.93804400      221        5
Mn      10.80000000       5.40000000      12.60000000      54.93804400      222        5
Mn      12.60000000       3.60000000      12.60000000      54.93804400      223        5
Mn      12.60000000       5.40000000      10.80000000      54.93804400      224        5
Mn      10.80000000       7.20000000       0.00000000      54.93804400      225        5
Cr      10.80000000       9.00000000       1.80000000      51.99610000      226        3
Ni      12.60000000       7.20000000       1.80000000      58.69340000      227        2
Fe      12.60000000       9.00000000       0.00000000      55.84500000      228        4
Ni      10.80000000       7.20000000       3.60000000      58.69340000      229        2
Ni      10.80000000       9.00000000       5.40000000      58.69340000      230        2
Ni      12.60000000       7.20000000       5.40000000      58.69340000      231        2
Cr      12.60000000       9.00000000       3.60000000      51.99610000      232        3
Cr      10.80000000       7.20000000       7.20000000      51.99610000      233        3
Fe      10.80000000       9.00000000       9.00000000      55.84500000      234        4
Ni      12.60000000       7.20000000       9.00000000      58.69340000      235        2
Cr      12.60000000       9.00000000       7.20000000      51.99610000      236        3
Mn      10.80000000       7.20000000      10.80000000      54.93804400      237        5
Mn      10.80000000       9.00000000      12.60000000      54.93804400      238        5
Mn      12.60000000       7.20000000      12.60000000      54.93804400      239        5
Cr      12.60000000       9.00000000      10.80000000      51.99610000      240        3
Co      10.80000000      10.80000000       0.00000000      58.93319400      241        1
Mn      10.80000000      12.60000000       1.80000000      54.93804400      242        5
Fe      12.60000000      10.80000000       1.80000000      55.84500000      243        4
Mn      12.60000000      12.60000000       0.00000000      54.93804400      244        5
Fe      10.80000000      10.80000000       3.60000000      55.84500000      245        4
Ni      10.80000000      12.60000000       5.40000000      58.69340000      246        2
Ni      12.60000000      10.80000000       5.40000000      58.69340000      247        2
Fe      12.60000000      12.60000000       3.60000000      55.84500000      248        4
Ni      10.80000000      10.80000000       7.20000000      58.69340000      249        2
Cr      10.80000000      12.60000000       9.00000000      51.99610000      250        3
Ni      12.60000000      10.80000000       9.00000000      58.69340000      251        2
Cr      12.60000000      12.60000000       7.20000000      51.99610000      252        3
Fe      10.80000000      10.80000000      10.80000000      55.84500000      253        4
Mn      10.80000000      12.60000000      12.60000000      54.93804400      254        5
Fe      12.60000000      10.80000000      12.60000000      55.84500000      255        4
Ni      12.60000000      12.60000000      10.80000000      58.69340000      256        2
