256
Lattice="14.4 0.0 0.0 0.0 14.4 0.0 0.0 0.0 14.4" Properties=species:S:1:pos:R:3:masses:R:1:id:I:1:type:I:1 comment="(written by ASE)" energy=-1017.40301968265 pbc="T T T"
Ni       0.00000000       0.00000000       0.00000000      58.69340000        1        2
Co       0.00000000       1.80000000       1.80000000      58.93319400        2        1
Ni       1.80000000       0.00000000       1.80000000      58.69340000        3        2
Mn       1.80000000       1.80000000       0.00000000      54.93804400        4        5
Co       0.00000000       0.00000000       3.60000000      58.93319400        5        1
Co       0.00000000       1.80000000       5.40000000      58.93319400        6        1
Fe       1.80000000       0.00000000       5.40000000      55.84500000        7        4
Cr       1.80000000       1.80000000       3.60000000      51.99610000        8        3
Fe       0.00000000       0.00000000       7.20000000      55.84500000        9        4
Fe       0.00000000       1.80000000       9.00000000      55.84500000       10        4
Ni       1.80000000       0.00000000       9.00000000      58.69340000       11        2
Cr       1.80000000       1.80000000       7.20000000      51.99610000       12        3
Mn       0.00000000       0.00000000      10.80000000      54.93804400       13        5
Ni       0.00000000       1.80000000      12.60000000      58.69340000       14        2
Mn       1.80000000       0.00000000      12.60000000      54.93804400       15        5
Mn       1.80000000       1.80000000      10.80000000      54.93804400       16        5
Fe       0.00000000       3.60000000       0.00000000      55.84500000       17        4
Cr       0.00000000       5.40000000       1.80000000      51.99610000       18        3
Fe       1.80000000       3.60000000       1.80000000      55.84500000       19        4
Co       1.80000000       5.40000000       0.00000000      58.93319400       20        1
Co       0.00000000       3.60000000       3.60000000      58.93319400       21        1
Cr       0.00000000       5.40000000       5.40000000      51.99610000       22        3
Co       1.80000000       3.60000000       5.40000000      58.93319400       23        1
Co       1.80000000       5.40000000       3.60000000      58.93319400       24        1
Co       0.00000000       3.60000000       7.20000000      58.93319400       25        1
Cr       0.00000000       5.40000000       9.00000000      51.99610000       26        3
Co       1.80000000       3.60000000       9.00000000      58.93319400       27        1
Co       1.80000000       5.40000000       7.20000000      58.93319400       28        1
Fe       0.00000000       3.60000000      10.80000000      55.84500000       29        4
Cr       0.00000000       5.40000000      12.60000000      51.99610000       30        3
Ni       1.80000000       3.60000000      12.60000000      58.69340000       31        2
Cr       1.80000000       5.40000000      10.80000000      51.99610000       32        3
Co       0.00000000       7.20000000       0.00000000      58.93319400       33        1
Cr       0.00000000       9.00000000       1.80000000      51.99610000       34        3
Co       1.80000000       7.20000000       1.80000000      58.93319400       35        1
Cr       1.80000000       9.00000000       0.00000000      51.99610000       36        3
Co       0.00000000       7.20000000       3.60000000      58.93319400       37        1
Co       0.00000000       9.00000000       5.40000000      58.93319400       38        1
Cr       1.80000000       7.20000000       5.40000000      51.99610000       39        3
Cr       1.80000000       9.00000000       3.60000000      51.99610000       40        3
Cr       0.00000000       7.20000000       7.20000000      51.99610000       41        3
Ni       0.00000000       9.00000000       9.00000000      58.69340000       42        2
Co       1.80000000       7.20000000       9.00000000      58.93319400       43        1
Fe       1.80000000       9.00000000       7.20000000      55.84500000       44        4
Co       0.00000000       7.20000000      10.80000000      58.93319400       45        1
Fe       0.00000000       9.00000000      12.60000000      55.84500000       46        4
Co       1.80000000       7.20000000      12.60000000      58.93319400       47        1
Cr       1.80000000       9.00000000      10.80000000      51.99610000       48        3
Ni       0.00000000      10.80000000       0.00000000      58.69340000       49        2
Cr       0.00000000      12.60000000       1.80000000      51.99610000       50        3
Fe       1.80000000      10.80000000       1.80000000      55.84500000       51        4
Fe       1.80000000      12.60000000       0.00000000      55.84500000       52        4
Co       0.00000000      10.80000000       3.60000000      58.93319400       53        1
Ni       0.00000000      12.60000000       5.40000000      58.69340000       54        2
Mn       1.80000000      10.80000000       5.40000000      54.93804400       55        5
Mn       1.80000000      12.60000000       3.60000000      54.93804400       56        5
Mn       0.00000000      10.80000000       7.20000000      54.93804400       57        5
Mn       0.00000000      12.60000000       9.00000000      54.93804400       58        5
Mn       1.80000000      10.80000000       9.00000000      54.93804400       59        5
Mn       1.80000000      12.60000000       7.20000000      54.93804400       60        5
Fe       0.00000000      10.80000000      10.80000000      55.84500000       61        4
Mn       0.00000000      12.60000000      12.60000000      54.93804400       62        5
Cr       1.80000000      10.80000000      12.60000000      51.99610000       63        3
Fe       1.80000000      12.60000000      10.80000000      55.84500000       64        4
Mn       3.60000000       0.00000000       0.00000000      54.93804400       65        5
Ni       3.60000000       1.80000000       1.80000000      58.69340000       66        2
Cr       5.40000000       0.00000000       1.80000000      51.99610000       67        3
Fe       5.40000000       1.80000000       0.00000000      55.84500000       68        4
Fe       3.60000000       0.00000000       3.60000000      55.84500000       69        4
Cr       3.60000000       1.80000000       5.40000000      51.99610000       70        3
Fe       5.40000000       0.00000000       5.40000000      55.84500000       71        4
Cr       5.40000000       1.80000000       3.60000000      51.99610000       72        3
Ni       3.60000000       0.00000000       7.20000000      58.69340000       73        2
Mn       3.60000000       1.80000000       9.00000000      54.93804400       74        5
Fe       5.40000000       0.00000000       9.00000000      55.84500000       75        4
Mn       5.40000000       1.80000000       7.20000000      54.93804400       76        5
Ni       3.60000000       0.00000000      10.80000000      58.69340000       77        2
Mn       3.60000000       1.80000000      12.60000000      54.93804400       78        5
Fe       5.40000000       0.00000000      12.60000000      55.84500000       79        4
Mn       5.40000000       1.80000000      10.80000000      54.93804400       80        5
Mn       3.60000000       3.60000000       0.00000000      54.93804400       81        5
Cr       3.60000000       5.40000000       1.80000000      51.99610000       82        3
Ni       5.40000000       3.60000000       1.80000000      58.69340000       83        2
Mn       5.40000000       5.40000000       0.00000000      54.93804400       84        5
Co       3.60000000       3.60000000       3.60000000      58.93319400       85        1
Co       3.60000000       5.40000000       5.40000000      58.93319400       86        1
Ni       5.40000000       3.60000000       5.40000000      58.69340000       87        2
Co       5.40000000       5.40000000       3.60000000      58.93319400       88        1
Fe       3.60000000       3.60000000       7.20000000      55.84500000       89        4
Ni       3.60000000       5.40000000       9.00000000      58.69340000       90        2
Mn       5.40000000       3.60000000       9.00000000      54.93804400       91        5
Ni       5.40000000       5.40000000       7.20000000      58.69340000       92        2
Fe       3.60000000       3.60000000      10.80000000      55.84500000       93        4
Fe       3.60000000       5.40000000      12.60000000      55.84500000       94        4
Mn       5.40000000       3.60000000      12.60000000      54.93804400       95        5
Mn       5.40000000       5.40000000      10.80000000      54.93804400       96        5
Co       3.60000000       7.20000000       0.00000000      58.93319400       97        1
Co       3.60000000       9.00000000       1.80000000      58.93319400       98        1
Co       5.40000000       7.20000000       1.80000000      58.93319400       99        1
Cr       5.40000000       9.00000000       0.00000000      51.99610000      100        3
Co       3.60000000       7.20000000       3.60000000      58.93319400      101        1
Fe       3.60000000       9.00000000       5.40000000      55.84500000      102        4
Cr       5.40000000       7.20000000       5.40000000      51.99610000      103        3
Cr       5.40000000       9.00000000       3.60000000      51.99610000      104        3
Co       3.60000000       7.20000000       7.20000000      58.93319400      105        1
Co       3.60000000       9.00000000       9.00000000      58.93319400      106        1
Mn       5.40000000       7.20000000       9.00000000      54.93804400      107        5
Ni       5.40000000       9.00000000       7.20000000      58.69340000      108        2
Co       3.60000000       7.20000000      10.80000000      58.93319400      109        1
Fe       3.60000000       9.00000000      12.60000000      55.84500000      110        4
Ni       5.40000000       7.20000000      12.60000000      58.69340000      111        2
Cr       5.40000000       9.00000000      10.80000000      51.99610000      112        3
Cr       3.60000000      10.80000000       0.00000000      51.99610000      113        3
Ni       3.60000000      12.60000000       1.80000000      58.69340000      114        2
Fe       5.40000000      10.80000000       1.80000000      55.84500000      115        4
Ni       5.40000000      12.60000000       0.00000000      58.69340000      116        2
Co       3.60000000      10.80000000       3.60000000      58.93319400      117        1
Mn       3.60000000      12.60000000       5.40000000      54.93804400      118        5
Fe       5.40000000      10.80000000       5.40000000      55.84500000      119        4
Ni       5.40000000      12.60000000       3.60000000      58.69340000      120        2
Ni       3.60000000      10.80000000       7.20000000      58.69340000      121        2
Cr       3.60000000      12.60000000       9.00000000      51.99610000      122        3
Fe       5.40000000      10.80000000       9.00000000      55.84500000      123        4
Mn       5.40000000      12.60000000       7.20000000      54.93804400      124        5
Ni       3.60000000      10.80000000      10.80000000      58.69340000      125        2
Ni       3.60000000      12.60000000      12.60000000      58.69340000      126        2
Fe       5.40000000      10.80000000      12.60000000      55.84500000      127        4
Cr       5.40000000      12.60000000      10.80000000      51.99610000      128        3
Ni       7.20000000       0.00000000       0.00000000      58.69340000      129        2
Fe       7.20000000       1.80000000       1.80000000      55.84500000      130        4
Cr       9.00000000       0.00000000       1.80000000      51.99610000      131        3
Mn       9.00000000       1.80000000       0.00000000      54.93804400      132        5
Fe       7.20000000       0.00000000       3.60000000      55.84500000      133        4
Fe       7.20000000       1.80000000       5.40000000      55.84500000      134        4
Co       9.00000000       0.00000000       5.40000000      58.93319400      135        1
Cr       9.00000000       1.80000000       3.60000000      51.99610000      136        3
Mn       7.20000000       0.00000000       7.20000000      54.93804400      137        5
Mn       7.20000000       1.80000000       9.00000000      54.93804400      138        5
Mn       9.00000000       0.00000000       9.00000000      54.93804400      139        5
Ni       9.00000000       1.80000000       7.20000000      58.69340000      140        2
Mn       7.20000000       0.00000000      10.80000000      54.93804400      141        5
Mn       7.20000000       1.80000000      12.60000000      54.93804400      142        5
Mn       9.00000000       0.00000000      12.60000000      54.93804400      143        5
Mn       9.00000000       1.80000000      10.80000000      54.93804400      144        5
Mn       7.20000000       3.60000000       0.00000000      54.93804400      145        5
Fe       7.20000000       5.40000000       1.80000000      55.84500000      146        4
Ni       9.00000000       3.60000000       1.80000000      58.69340000      147        2
Mn       9.00000000       5.40000000       0.00000000      54.93804400      148        5
Cr       7.20000000       3.60000000       3.60000000      51.99610000      149        3
Fe       7.20000000       5.40000000       5.40000000      55.84500000      150        4
Ni       9.00000000       3.60000000       5.40000000      58.69340000      151        2
Cr       9.00000000       5.40000000       3.60000000      51.99610000      152        3
Mn       7.20000000       3.60000000       7.20000000      54.93804400      153        5
Mn       7.20000000       5.40000000       9.00000000      54.93804400      154        5
Ni       9.00000000       3.60000000       9.00000000      58.69340000      155        2
Fe       9.00000000       5.40000000       7.20000000      55.84500000      156        4
Mn       7.20000000       3.60000000      10.80000000      54.93804400      157        5
Mn       7.20000000       5.40000000      12.60000000      54.93804400      158        5
Mn       9.00000000       3.60000000      12.60000000      54.93804400      159        5
Mn       9.00000000       5.40000000      10.80000000      54.93804400      160        5
Mn       7.20000000       7.20000000       0.00000000      54.93804400      161        5
Fe       7.20000000       9.00000000       1.80000000      55.84500000      162        4
Ni       9.00000000       7.20000000       1.80000000      58.69340000      163        2
Mn       9.00000000       9.00000000       0.00000000      54.93804400      164        5
Ni       7.20000000       7.20000000       3.60000000      58.69340000      165        2
Fe       7.20000000       9.00000000       5.40000000      55.84500000      166        4
Ni       9.00000000       7.20000000       5.40000000      58.69340000      167        2
Cr       9.00000000       9.00000000       3.60000000      51.99610000      168        3
Mn       7.20000000       7.20000000       7.20000000      54.93804400      169        5
Ni       7.20000000       9.00000000       9.00000000      58.69340000      170        2
Ni       9.00000000       7.20000000       9.00000000      58.69340000      171        2
Fe       9.00000000       9.00000000       7.20000000      55.84500000      172        4
Fe       7.20000000       7.20000000      10.80000000      55.84500000      173        4
Fe       7.20000000       9.00000000      12.60000000      55.84500000      174        4
Mn       9.00000000       7.20000000      12.60000000      54.93804400      175        5
Cr       9.00000000       9.00000000      10.80000000      51.99610000      176        3
Cr       7.20000000      10.80000000       0.00000000      51.99610000      177        3
Ni       7.20000000      12.60000000       1.80000000      58.69340000      178        2
Ni       9.00000000      10.80000000       1.80000000      58.69340000      179        2
Fe       9.00000000      12.60000000       0.00000000      55.84500000      180        4
Mn       7.20000000      10.80000000       3.60000000      54.93804400      181        5
Mn       7.20000000      12.60000000       5.40000000      54.93804400      182        5
Fe       9.00000000      10.80000000       5.40000000      55.84500000      183        4
Ni       9.00000000      12.60000000       3.60000000      58.69340000      184        2
Mn       7.20000000      10.80000000       7.20000000      54.93804400      185        5
Mn       7.20000000      12.60000000       9.00000000      54.93804400      186        5
Fe       9.00000000      10.80000000       9.00000000      55.84500000      187        4
Mn       9.00000000      12.60000000       7.20000000      54.93804400      188        5
Ni       7.20000000      10.80000000      10.80000000      58.69340000      189        2
Fe       7.20000000      12.60000000      12.60000000      55.84500000      190        4
Mn       9.00000000      10.80000000      12.60000000      54.93804400      191        5
Mn       9.00000000      12.60000000      10.80000000      54.93804400      192        5
Ni      10.80000000       0.00000000       0.00000000      58.69340000      193        2
Co      10.80000000       1.80000000       1.80000000      58.93319400      194        1
Cr      12.60000000       0.00000000       1.80000000      51.99610000      195        3
Cr      12.60000000       1.80000000       0.00000000      51.99610000      196        3
Co      10.80000000       0.00000000       3.60000000      58.93319400      197        1
Co      10.80000000       1.80000000       5.40000000      58.93319400      198        1
Cr      12.60000000       0.00000000       5.40000000      51.99610000      199        3
Co      12.60000000       1.80000000       3.60000000      58.93319400      200        1
Fe      10.80000000       0.00000000       7.20000000      55.84500000      201        4
Fe      10.80000000       1.80000000       9.00000000      55.84500000      202        4
Mn      12.60000000       0.00000000       9.00000000      54.93804400      203        5
Cr      12.60000000       1.80000000       7.20000000      51.99610000      204        3
Mn      10.80000000       0.00000000      10.80000000      54.93804400      205        5
Fe      10.80000000       1.80000000      12.60000000      55.84500000      206        4
Mn      12.60000000       0.00000000      12.60000000      54.93804400      207        5
Ni      12.60000000       1.80000000      10.80000000      58.69340000      208        2
Fe      10.80000000       3.60000000       0.00000000      55.84500000      209        4
Cr      10.80000000       5.40000000       1.80000000      51.99610000      210        3
Cr      12.60000000       3.60000000       1.80000000      51.99610000      211        3
Co      12.60000000       5.40000000       0.00000000      58.93319400      212        1
Co      10.80000000       3.60000000       3.60000000      58.93319400      213        1
Co      10.80000000       5.40000000       5.40000000      58.93319400      214        1
Co      12.60000000       3.60000000       5.40000000      58.93319400      215        1
Co      12.60000000       5.40000000       3.60000000      58.93319400      216        1
Cr      10.80000000       3.60000000       7.20000000      51.99610000      217        3
Co      10.80000000       5.40000000       9.00000000      58.93319400      218        1
Ni      12.60000000       3.60000000       9.00000000      58.69340000      219        2
Co      12.60000000       5.40000000       7.20000000      58.93319400      220        1
Ni      10.80000000       3.60000000      10.80000000      58.69340000      221        2
Fe      10.80000000       5.40000000      12.60000000      55.84500000      222        4
Cr      12.60000000       3.60000000      12.60000000      51.99610000      223        3
Co      12.60000000       5.40000000      10.80000000      58.93319400      224        1
Cr      10.80000000       7.20000000       0.00000000      51.99610000      225        3
Fe      10.80000000       9.00000000       1.80000000      55.84500000      226        4
Ni      12.60000000       7.20000000       1.80000000      58.69340000      227        2
Fe      12.60000000       9.00000000       0.00000000      55.84500000      228        4
Fe      10.80000000       7.20000000       3.60000000      55.84500000      229        4
Ni      10.80000000       9.00000000       5.40000000      58.69340000      230        2
Co      12.60000000       7.20000000       5.40000000      58.93319400      231        1
Cr      12.60000000       9.00000000       3.60000000      51.99610000      232        3
Cr      10.80000000       7.20000000       7.20000000      51.99610000      233        3
Co      10.80000000       9.00000000       9.00000000      58.93319400      234        1
Co      12.60000000       7.20000000       9.00000000      58.93319400      235        1
Co      12.60000000       9.00000000       7.20000000      58.93319400      236        1
Co      10.80000000       7.20000000      10.80000000      58.93319400      237        1
Fe      10.80000000       9.00000000      12.60000000      55.84500000      238        4
Cr      12.60000000       7.20000000      12.60000000      51.99610000      239        3
Ni      12.60000000       9.00000000      10.80000000      58.69340000      240        2
Mn      10.80000000      10.80000000       0.00000000      54.93804400      241        5
Co      10.80000000      12.60000000       1.80000000      58.93319400      242        1
Ni      12.60000000      10.80000000       1.80000000      58.69340000      243        2
Fe      12.60000000      12.60000000       0.00000000      55.84500000      244        4
Cr      10.80000000      10.80000000       3.60000000      51.99610000      245        3
Cr      10.80000000      12.60000000       5.40000000      51.99610000      246        3
Fe      12.60000000      10.80000000       5.40000000      55.84500000      247        4
Co      12.60000000      12.60000000       3.60000000      58.93319400      248        1
Ni      10.80000000      10.80000000       7.20000000      58.69340000      249        2
Mn      10.80000000      12.60000000       9.00000000      54.93804400      250        5
Mn      12.60000000      10.80000000       9.00000000      54.93804400      251        5
Fe      12.60000000      12.60000000       7.20000000      55.84500000      252        4
Mn      10.80000000      10.80000000      10.80000000      54.93804400      253        5
Mn      10.80000000      12.60000000      12.60000000      54.93804400      254        5
Mn      12.60000000      10.80000000      12.60000000      54.93804400      255        5
Mn      12.60000000      12.60000000      10.80000000      54.93804400      256        5
