256
Lattice="14.4 0.0 0.0 0.0 14.4 0.0 0.0 0.0 14.4" Properties=species:S:1:pos:R:3:masses:R:1:id:I:1:type:I:1 comment="(written by ASE)" energy=-1022.47615027574 pbc="T T T"
Co       0.00000000       0.00000000       0.00000000      58.93319400        1        1
Ni       0.00000000       1.80000000       1.80000000      58.69340000        2        2
Mn       1.80000000       0.00000000       1.80000000      54.93804400        3        5
Co       1.80000000       1.80000000       0.00000000      58.93319400        4        1
Ni       0.00000000       0.00000000       3.60000000      58.69340000        5        2
Ni       0.00000000       1.80000000       5.40000000      58.69340000        6        2
Ni       1.80000000       0.00000000       5.40000000      58.69340000        7        2
Ni       1.80000000       1.80000000       3.60000000      58.69340000        8        2
Ni       0.00000000       0.00000000       7.20000000      58.69340000        9        2
Ni       0.00000000       1.80000000       9.00000000      58.69340000       10        2
Ni       1.80000000       0.00000000       9.00000000      58.69340000       11        2
Ni       1.80000000       1.80000000       7.20000000      58.69340000       12        2
Ni       0.00000000       0.00000000      10.80000000      58.69340000       13        2
Ni       0.00000000       1.80000000      12.60000000      58.69340000       14        2
Fe       1.80000000       0.00000000      12.60000000      55.84500000       15        4
Co       1.80000000       1.80000000      10.80000000      58.93319400       16        1
Ni       0.00000000       3.60000000       0.00000000      58.69340000       17        2
Ni       0.00000000       5.40000000       1.80000000      58.69340000       18        2
Ni       1.80000000       3.60000000       1.80000000      58.69340000       19        2
Mn       1.80000000       5.40000000       0.00000000      54.93804400       20        5
Ni       0.00000000       3.60000000       3.60000000      58.69340000       21        2
Mn       0.00000000       5.40000000       5.40000000      54.93804400       22        5
Co       1.80000000       3.60000000       5.40000000      58.93319400       23        1
Fe       1.80000000       5.40000000       3.60000000      55.84500000       24        4
Co       0.00000000       3.60000000       7.20000000      58.93319400       25        1
Co       0.00000000       5.40000000       9.00000000      58.93319400       26        1
Mn       1.80000000       3.60000000       9.00000000      54.93804400       27        5
Mn       1.80000000       5.40000000       7.20000000      54.93804400       28        5
Co       0.00000000       3.60000000      10.80000000      58.93319400       29        1
Co       0.00000000       5.40000000      12.60000000      58.93319400       30        1
Ni       1.80000000       3.60000000      12.60000000      58.69340000       31        2
Mn       1.80000000       5.40000000      10.80000000      54.93804400       32        5
Co       0.00000000       7.20000000       0.00000000      58.93319400       33        1
Fe       0.00000000       9.00000000       1.80000000      55.84500000       34        4
Co       1.80000000       7.20000000       1.80000000      58.93319400       35        1
Mn       1.80000000       9.00000000       0.00000000      54.93804400       36        5
Cr       0.00000000       7.20000000       3.60000000      51.99610000       37        3
Fe       0.00000000       9.00000000       5.40000000      55.84500000       38        4
Cr       1.80000000       7.20000000       5.40000000      51.99610000       39        3
Mn       1.80000000       9.00000000       3.60000000      54.93804400       40        5
Fe       0.00000000       7.20000000       7.20000000      55.84500000       41        4
Cr       0.00000000       9.00000000       9.00000000      51.99610000       42        3
Cr       1.80000000       7.20000000       9.00000000      51.99610000       43        3
Cr       1.80000000       9.00000000       7.20000000      51.99610000       44        3
Mn       0.00000000       7.20000000      10.80000000      54.93804400       45        5
Mn       0.00000000       9.00000000      12.60000000      54.93804400       46        5
Fe       1.80000000       7.20000000      12.60000000      55.84500000       47        4
Cr       1.80000000       9.00000000      10.80000000      51.99610000       48        3
Co       0.00000000      10.80000000       0.00000000      58.93319400       49        1
Fe       0.00000000      12.60000000       1.80000000      55.84500000       50        4
Co       1.80000000      10.80000000       1.80000000      58.93319400       51        1
Mn       1.80000000      12.60000000       0.00000000      54.93804400       52        5
Mn       0.00000000      10.80000000       3.60000000      54.93804400       53        5
Ni       0.00000000      12.60000000       5.40000000      58.69340000       54        2
Co       1.80000000      10.80000000       5.40000000      58.93319400       55        1
Cr       1.80000000      12.60000000       3.60000000      51.99610000       56        3
Ni       0.00000000      10.80000000       7.20000000      58.69340000       57        2
Ni       0.00000000      12.60000000       9.00000000      58.69340000       58        2
Cr       1.80000000      10.80000000       9.00000000      51.99610000       59        3
Ni       1.80000000      12.60000000       7.20000000      58.69340000       60        2
Fe       0.00000000      10.80000000      10.80000000      55.84500000       61        4
Fe       0.00000000      12.60000000      12.60000000      55.84500000       62        4
Co       1.80000000      10.80000000      12.60000000      58.93319400       63        1
Mn       1.80000000      12.60000000      10.80000000      54.93804400       64        5
Cr       3.60000000       0.00000000       0.00000000      51.99610000       65        3
Fe       3.60000000       1.80000000       1.80000000      55.84500000       66        4
Fe       5.40000000       0.00000000       1.80000000      55.84500000       67        4
Mn       5.40000000       1.80000000       0.00000000      54.93804400       68        5
Mn       3.60000000       0.00000000       3.60000000      54.93804400       69        5
Fe       3.60000000       1.80000000       5.40000000      55.84500000       70        4
Fe       5.40000000       0.00000000       5.40000000      55.84500000       71        4
Cr       5.40000000       1.80000000       3.60000000      51.99610000       72        3
Mn       3.60000000       0.00000000       7.20000000      54.93804400       73        5
Mn       3.60000000       1.80000000       9.00000000      54.93804400       74        5
Fe       5.40000000       0.00000000       9.00000000      55.84500000       75        4
Cr       5.40000000       1.80000000       7.20000000      51.99610000       76        3
Co       3.60000000       0.00000000      10.80000000      58.93319400       77        1
Mn       3.60000000       1.80000000      12.60000000      54.93804400       78        5
Fe       5.40000000       0.00000000      12.60000000      55.84500000       79        4
Cr       5.40000000       1.80000000      10.80000000      51.99610000       80        3
Co       3.60000000       3.60000000       0.00000000      58.93319400       81        1
Co       3.60000000       5.40000000       1.80000000      58.93319400       82        1
Mn       5.40000000       3.60000000       1.80000000      54.93804400       83        5
Co       5.40000000       5.40000000       0.00000000      58.93319400       84        1
Mn       3.60000000       3.60000000       3.60000000      54.93804400       85        5
Cr       3.60000000       5.40000000       5.40000000      51.99610000       86        3
Cr       5.40000000       3.60000000       5.40000000      51.99610000       87        3
Fe       5.40000000       5.40000000       3.60000000      55.84500000       88        4
Fe       3.60000000       3.60000000       7.20000000      55.84500000       89        4
Co       3.60000000       5.40000000       9.00000000      58.93319400       90        1
Mn       5.40000000       3.60000000       9.00000000      54.93804400       91        5
Cr       5.40000000       5.40000000       7.20000000      51.99610000       92        3
Ni       3.60000000       3.60000000      10.80000000      58.69340000       93        2
Ni       3.60000000       5.40000000      12.60000000      58.69340000       94        2
Ni       5.40000000       3.60000000      12.60000000      58.69340000       95        2
Ni       5.40000000       5.40000000      10.80000000      58.69340000       96        2
Mn       3.60000000       7.20000000       0.00000000      54.93804400       97        5
Fe       3.60000000       9.00000000       1.80000000      55.84500000       98        4
Fe       5.40000000       7.20000000       1.80000000      55.84500000       99        4
Mn       5.40000000       9.00000000       0.00000000      54.93804400      100        5
Mn       3.60000000       7.20000000       3.60000000      54.93804400      101        5
Fe       3.60000000       9.00000000       5.40000000      55.84500000      102        4
Mn       5.40000000       7.20000000       5.40000000      54.93804400      103        5
Co       5.40000000       9.00000000       3.60000000      58.93319400      104        1
Fe       3.60000000       7.20000000       7.20000000      55.84500000      105        4
Cr       3.60000000       9.00000000       9.00000000      51.99610000      106        3
Mn       5.40000000       7.20000000       9.00000000      54.93804400      107        5
Fe       5.40000000       9.00000000       7.20000000      55.84500000      108        4
Ni       3.60000000       7.20000000      10.80000000      58.69340000      109        2
Co       3.60000000       9.00000000      12.60000000      58.93319400      110        1
Co       5.40000000       7.20000000      12.60000000      58.93319400      111        1
Mn       5.40000000       9.00000000      10.80000000      54.93804400      112        5
Mn       3.60000000      10.80000000       0.00000000      54.93804400      113        5
Fe       3.60000000      12.60000000       1.80000000      55.84500000      114        4
Fe       5.40000000      10.80000000       1.80000000      55.84500000      115        4
Mn       5.40000000      12.60000000       0.00000000      54.93804400      116        5
Cr       3.60000000      10.80000000       3.60000000      51.99610000      117        3
Fe       3.60000000      12.60000000       5.40000000      55.84500000      118        4
Mn       5.40000000      10.80000000       5.40000000      54.93804400      119        5
Cr       5.40000000      12.60000000       3.60000000      51.99610000      120        3
Mn       3.60000000      10.80000000       7.20000000      54.93804400      121        5
Mn       3.60000000      12.60000000       9.00000000      54.93804400      122        5
Co       5.40000000      10.80000000       9.00000000      58.93319400      123        1
Co       5.40000000      12.60000000       7.20000000      58.93319400      124        1
Fe       3.60000000      10.80000000      10.80000000      55.84500000      125        4
Co       3.60000000      12.60000000      12.60000000      58.93319400      126        1
Co       5.40000000      10.80000000      12.60000000      58.93319400      127        1
Mn       5.40000000      12.60000000      10.80000000      54.93804400      128        5
Cr       7.20000000       0.00000000       0.00000000      51.99610000      129        3
Cr       7.20000000       1.80000000       1.80000000      51.99610000      130        3
Mn       9.00000000       0.00000000       1.80000000      54.93804400      131        5
Mn       9.00000000       1.80000000       0.00000000      54.93804400      132        5
Mn       7.20000000       0.00000000       3.60000000      54.93804400      133        5
Fe       7.20000000       1.80000000       5.40000000      55.84500000      134        4
Co       9.00000000       0.00000000       5.40000000      58.93319400      135        1
Mn       9.00000000       1.80000000       3.60000000      54.93804400      136        5
Cr       7.20000000       0.00000000       7.20000000      51.99610000      137        3
Cr       7.20000000       1.80000000       9.00000000      51.99610000      138        3
Fe       9.00000000       0.00000000       9.00000000      55.84500000      139        4
Mn       9.00000000       1.80000000       7.20000000      54.93804400      140        5
Cr       7.20000000       0.00000000      10.80000000      51.99610000      141        3
Fe       7.20000000       1.80000000      12.60000000      55.84500000      142        4
Cr       9.00000000       0.00000000      12.60000000      51.99610000      143        3
Cr       9.00000000       1.80000000      10.80000000      51.99610000      144        3
Co       7.20000000       3.60000000       0.00000000      58.93319400      145        1
Mn       7.20000000       5.40000000       1.80000000      54.93804400      146        5
Fe       9.00000000       3.60000000       1.80000000      55.84500000      147        4
Mn       9.00000000       5.40000000       0.00000000      54.93804400      148        5
Co       7.20000000       3.60000000       3.60000000      58.93319400      149        1
Mn       7.20000000       5.40000000       5.40000000      54.93804400      150        5
Co       9.00000000       3.60000000       5.40000000      58.93319400      151        1
Mn       9.00000000       5.40000000       3.60000000      54.93804400      152        5
Fe       7.20000000       3.60000000       7.20000000      55.84500000      153        4
Cr       7.20000000       5.40000000       9.00000000      51.99610000      154        3
Fe       9.00000000       3.60000000       9.00000000      55.84500000      155        4
Fe       9.00000000       5.40000000       7.20000000      55.84500000      156        4
Cr       7.20000000       3.60000000      10.80000000      51.99610000      157        3
Mn       7.20000000       5.40000000      12.60000000      54.93804400      158        5
Fe       9.00000000       3.60000000      12.60000000      55.84500000      159        4
Mn       9.00000000       5.40000000      10.80000000      54.93804400      160        5
Co       7.20000000       7.20000000       0.00000000      58.93319400      161        1
Mn       7.20000000       9.00000000       1.80000000      54.93804400      162        5
Co       9.00000000       7.20000000       1.80000000      58.93319400      163        1
Cr       9.00000000       9.00000000       0.00000000      51.99610000      164        3
Co       7.20000000       7.20000000       3.60000000      58.93319400      165        1
Cr       7.20000000       9.00000000       5.40000000      51.99610000      166        3
Cr       9.00000000       7.20000000       5.40000000      51.99610000      167        3
Mn       9.00000000       9.00000000       3.60000000      54.93804400      168        5
Cr       7.20000000       7.20000000       7.20000000      51.99610000      169        3
Co       7.20000000       9.00000000       9.00000000      58.93319400      170        1
Cr       9.00000000       7.20000000       9.00000000      51.99610000      171        3
Fe       9.00000000       9.00000000       7.20000000      55.84500000      172        4
Fe       7.20000000       7.20000000      10.80000000      55.84500000      173        4
Cr       7.20000000       9.00000000      12.60000000      51.99610000      174        3
Fe       9.00000000       7.20000000      12.60000000      55.84500000      175        4
Mn       9.00000000       9.00000000      10.80000000      54.93804400      176        5
Cr       7.20000000      10.80000000       0.00000000      51.99610000      177        3
Fe       7.20000000      12.60000000       1.80000000      55.84500000      178        4
Ni       9.00000000      10.80000000       1.80000000      58.69340000      179        2
Cr       9.00000000      12.60000000       0.00000000      51.99610000      180        3
Ni       7.20000000      10.80000000       3.60000000      58.69340000      181        2
Co       7.20000000      12.60000000       5.40000000      58.93319400      182        1
Fe       9.00000000      10.80000000       5.40000000      55.84500000      183        4
Ni       9.00000000      12.60000000       3.60000000      58.69340000      184        2
Fe       7.20000000      10.80000000       7.20000000      55.84500000      185        4
Cr       7.20000000      12.60000000       9.00000000      51.99610000      186        3
Co       9.00000000      10.80000000       9.00000000      58.93319400      187        1
Mn       9.00000000      12.60000000       7.20000000      54.93804400      188        5
Fe       7.20000000      10.80000000      10.80000000      55.84500000      189        4
Cr       7.20000000      12.60000000      12.60000000      51.99610000      190        3
Fe       9.00000000      10.80000000      12.60000000      55.84500000      191        4
Mn       9.00000000      12.60000000      10.80000000      54.93804400      192        5
Fe      10.80000000       0.00000000       0.00000000      55.84500000      193        4
Co      10.80000000       1.80000000       1.80000000      58.93319400      194        1
Mn      12.60000000       0.00000000       1.80000000      54.93804400      195        5
Ni      12.60000000       1.80000000       0.00000000      58.69340000      196        2
Ni      10.80000000       0.00000000       3.60000000      58.69340000      197        2
Ni      10.80000000       1.80000000       5.40000000      58.69340000      198        2
Ni      12.60000000       0.00000000       5.40000000      58.69340000      199        2
Ni      12.60000000       1.80000000       3.60000000      58.69340000      200        2
Ni      10.80000000       0.00000000       7.20000000      58.69340000      201        2
Co      10.80000000       1.80000000       9.00000000      58.93319400      202        1
Ni      12.60000000       0.00000000       9.00000000      58.69340000      203        2
Ni      12.60000000       1.80000000       7.20000000      58.69340000      204        2
Fe      10.80000000       0.00000000      10.80000000      55.84500000      205        4
Co      10.80000000       1.80000000      12.60000000      58.93319400      206        1
Mn      12.60000000       0.00000000      12.60000000      54.93804400      207        5
Ni      12.60000000       1.80000000      10.80000000      58.69340000      208        2
Mn      10.80000000       3.60000000       0.00000000      54.93804400      209        5
Co      10.80000000       5.40000000       1.80000000      58.93319400      210        1
Ni      12.60000000       3.60000000       1.80000000      58.69340000      211        2
Ni      12.60000000       5.40000000       0.00000000      58.69340000      212        2
Fe      10.80000000       3.60000000       3.60000000      55.84500000      213        4
Cr      10.80000000       5.40000000       5.40000000      51.99610000      214        3
Ni      12.60000000       3.60000000       5.40000000      58.69340000      215        2
Cr      12.60000000       5.40000000       3.60000000      51.99610000      216        3
Mn      10.80000000       3.60000000       7.20000000      54.93804400      217        5
Co      10.80000000       5.40000000       9.00000000      58.93319400      218        1
Mn      12.60000000       3.60000000       9.00000000      54.93804400      219        5
Fe      12.60000000       5.40000000       7.20000000      55.84500000      220        4
Mn      10.80000000       3.60000000      10.80000000      54.93804400      221        5
Co      10.80000000       5.40000000      12.60000000      58.93319400      222        1
Ni      12.60000000       3.60000000      12.60000000      58.69340000      223        2
Fe      12.60000000       5.40000000      10.80000000      55.84500000      224        4
Mn      10.80000000       7.20000000       0.00000000      54.93804400      225        5
Fe      10.80000000       9.00000000       1.80000000      55.84500000      226        4
Mn      12.60000000       7.20000000       1.80000000      54.93804400      227        5
Co      12.60000000       9.00000000       0.00000000      58.93319400      228        1
Fe      10.80000000       7.20000000       3.60000000      55.84500000      229        4
Cr      10.80000000       9.00000000       5.40000000      51.99610000      230        3
Cr      12.60000000       7.20000000       5.40000000      51.99610000      231        3
Cr      12.60000000       9.00000000       3.60000000      51.99610000      232        3
Mn      10.80000000       7.20000000       7.20000000      54.93804400      233        5
Co      10.80000000       9.00000000       9.00000000      58.93319400      234        1
Mn      12.60000000       7.20000000       9.00000000      54.93804400      235        5
Fe      12.60000000       9.00000000       7.20000000      55.84500000      236        4
Fe      10.80000000       7.20000000      10.80000000      55.84500000      237        4
Mn      10.80000000       9.00000000      12.60000000      54.93804400      238        5
Fe      12.60000000       7.20000000      12.60000000      55.84500000      239        4
Co      12.60000000       9.00000000      10.80000000      58.93319400      240        1
Cr      10.80000000      10.80000000       0.00000000      51.99610000      241        3
Fe      10.80000000      12.60000000       1.80000000      55.84500000      242        4
Cr      12.60000000      10.80000000       1.80000000      51.99610000      243        3
Cr      12.60000000      12.60000000       0.00000000      51.99610000      244        3
Cr      10.80000000      10.80000000       3.60000000      51.99610000      245        3
Ni      10.80000000      12.60000000       5.40000000      58.69340000      246        2
Co      12.60000000      10.80000000       5.40000000      58.93319400      247        1
Co      12.60000000      12.60000000       3.60000000      58.93319400      248        1
Co      10.80000000      10.80000000       7.20000000      58.93319400      249        1
Ni      10.80000000      12.60000000       9.00000000      58.69340000      250        2
Ni      12.60000000      10.80000000       9.00000000      58.69340000      251        2
Ni      12.60000000      12.60000000       7.20000000      58.69340000      252        2
Ni      10.80000000      10.80000000      10.80000000      58.69340000      253        2
Cr      10.80000000      12.60000000      12.60000000      51.99610000      254        3
Mn      12.60000000      10.80000000      12.60000000      54.93804400      255        5
Co      12.60000000      12.60000000      10.80000000      58.93319400      256        1
