256
Lattice="14.4 0.0 0.0 0.0 14.4 0.0 0.0 0.0 14.4" Properties=species:S:1:pos:R:3:masses:R:1:id:I:1:type:I:1 comment="(written by ASE)" energy=-1022.57186877551 pbc="T T T"
Co       0.00000000       0.00000000       0.00000000      58.93319400        1        1
Cr       0.00000000       1.80000000       1.80000000      51.99610000        2        3
Mn       1.80000000       0.00000000       1.80000000      54.93804400        3        5
Co       1.80000000       1.80000000       0.00000000      58.93319400        4        1
Co       0.00000000       0.00000000       3.60000000      58.93319400        5        1
Mn       0.00000000       1.80000000       5.40000000      54.93804400        6        5
Mn       1.80000000       0.00000000       5.40000000      54.93804400        7        5
Co       1.80000000       1.80000000       3.60000000      58.93319400        8        1
Ni       0.00000000       0.00000000       7.20000000      58.69340000        9        2
Fe       0.00000000       1.80000000       9.00000000      55.84500000       10        4
Mn       1.80000000       0.00000000       9.00000000      54.93804400       11        5
Fe       1.80000000       1.80000000       7.20000000      55.84500000       12        4
Co       0.00000000       0.00000000      10.80000000      58.93319400       13        1
Fe       0.00000000       1.80000000      12.60000000      55.84500000       14        4
Cr       1.80000000       0.00000000      12.60000000      51.99610000       15        3
Fe       1.80000000       1.80000000      10.80000000      55.84500000       16        4
Mn       0.00000000       3.60000000       0.00000000      54.93804400       17        5
Cr       0.00000000       5.40000000       1.80000000      51.99610000       18        3
Cr       1.80000000       3.60000000       1.80000000      51.99610000       19        3
Cr       1.80000000       5.40000000       0.00000000      51.99610000       20        3
Co       0.00000000       3.60000000       3.60000000      58.93319400       21        1
Mn       0.00000000       5.40000000       5.40000000      54.93804400       22        5
Ni       1.80000000       3.60000000       5.40000000      58.69340000       23        2
Cr       1.80000000       5.40000000       3.60000000      51.99610000       24        3
Fe       0.00000000       3.60000000       7.20000000      55.84500000       25        4
Ni       0.00000000       5.40000000       9.00000000      58.69340000       26        2
Mn       1.80000000       3.60000000       9.00000000      54.93804400       27        5
Cr       1.80000000       5.40000000       7.20000000      51.99610000       28        3
Fe       0.00000000       3.60000000      10.80000000      55.84500000       29        4
Fe       0.00000000       5.40000000      12.60000000      55.84500000       30        4
Fe       1.80000000       3.60000000      12.60000000      55.84500000       31        4
Fe       1.80000000       5.40000000      10.80000000      55.84500000       32        4
Co       0.00000000       7.20000000       0.00000000      58.93319400       33        1
Cr       0.00000000       9.00000000       1.80000000      51.99610000       34        3
Co       1.80000000       7.20000000       1.80000000      58.93319400       35        1
Cr       1.80000000       9.00000000       0.00000000      51.99610000       36        3
Ni       0.00000000       7.20000000       3.60000000      58.69340000       37        2
Ni       0.00000000       9.00000000       5.40000000      58.69340000       38        2
Co       1.80000000       7.20000000       5.40000000      58.93319400       39        1
Mn       1.80000000       9.00000000       3.60000000      54.93804400       40        5
Cr       0.00000000       7.20000000       7.20000000      51.99610000       41        3
Cr       0.00000000       9.00000000       9.00000000      51.99610000       42        3
Ni       1.80000000       7.20000000       9.00000000      58.69340000       43        2
Ni       1.80000000       9.00000000       7.20000000      58.69340000       44        2
Ni       0.00000000       7.20000000      10.80000000      58.69340000       45        2
Ni       0.00000000       9.00000000      12.60000000      58.69340000       46        2
Mn       1.80000000       7.20000000      12.60000000      54.93804400       47        5
Ni       1.80000000       9.00000000      10.80000000      58.69340000       48        2
Ni       0.00000000      10.80000000       0.00000000      58.69340000       49        2
Fe       0.00000000      12.60000000       1.80000000      55.84500000       50        4
Mn       1.80000000      10.80000000       1.80000000      54.93804400       51        5
Co       1.80000000      12.60000000       0.00000000      58.93319400       52        1
Co       0.00000000      10.80000000       3.60000000      58.93319400       53        1
Mn       0.00000000      12.60000000       5.40000000      54.93804400       54        5
Ni       1.80000000      10.80000000       5.40000000      58.69340000       55        2
Fe       1.80000000      12.60000000       3.60000000      55.84500000       56        4
Ni       0.00000000      10.80000000       7.20000000      58.69340000       57        2
Ni       0.00000000      12.60000000       9.00000000      58.69340000       58        2
Ni       1.80000000      10.80000000       9.00000000      58.69340000       59        2
Ni       1.80000000      12.60000000       7.20000000      58.69340000       60        2
Ni       0.00000000      10.80000000      10.80000000      58.69340000       61        2
Cr       0.00000000      12.60000000      12.60000000      51.99610000       62        3
Cr       1.80000000      10.80000000      12.60000000      51.99610000       63        3
Cr       1.80000000      12.60000000      10.80000000      51.99610000       64        3
Mn       3.60000000       0.00000000       0.00000000      54.93804400       65        5
Mn       3.60000000       1.80000000       1.80000000      54.93804400       66        5
Fe       5.40000000       0.00000000       1.80000000      55.84500000       67        4
Fe       5.40000000       1.80000000       0.00000000      55.84500000       68        4
Fe       3.60000000       0.00000000       3.60000000      55.84500000       69        4
Mn       3.60000000       1.80000000       5.40000000      54.93804400       70        5
Co       5.40000000       0.00000000       5.40000000      58.93319400       71        1
Ni       5.40000000       1.80000000       3.60000000      58.69340000       72        2
Co       3.60000000       0.00000000       7.20000000      58.93319400       73        1
Mn       3.60000000       1.80000000       9.00000000      54.93804400       74        5
Cr       5.40000000       0.00000000       9.00000000      51.99610000       75        3
Cr       5.40000000       1.80000000       7.20000000      51.99610000       76        3
Co       3.60000000       0.00000000      10.80000000      58.93319400       77        1
Fe       3.60000000       1.80000000      12.60000000      55.84500000       78        4
Mn       5.40000000       0.00000000      12.60000000      54.93804400       79        5
Co       5.40000000       1.80000000      10.80000000      58.93319400       80        1
Mn       3.60000000       3.60000000       0.00000000      54.93804400       81        5
Co       3.60000000       5.40000000       1.80000000      58.93319400       82        1
Ni       5.40000000       3.60000000       1.80000000      58.69340000       83        2
Mn       5.40000000       5.40000000       0.00000000      54.93804400       84        5
Ni       3.60000000       3.60000000       3.60000000      58.69340000       85        2
Cr       3.60000000       5.40000000       5.40000000      51.99610000       86        3
Co       5.40000000       3.60000000       5.40000000      58.93319400       87        1
Cr       5.40000000       5.40000000       3.60000000      51.99610000       88        3
Co       3.60000000       3.60000000       7.20000000      58.93319400       89        1
Co       3.60000000       5.40000000       9.00000000      58.93319400       90        1
Cr       5.40000000       3.60000000       9.00000000      51.99610000       91        3
Cr       5.40000000       5.40000000       7.20000000      51.99610000       92        3
Mn       3.60000000       3.60000000      10.80000000      54.93804400       93        5
Co       3.60000000       5.40000000      12.60000000      58.93319400       94        1
Fe       5.40000000       3.60000000      12.60000000      55.84500000       95        4
Mn       5.40000000       5.40000000      10.80000000      54.93804400       96        5
Cr       3.60000000       7.20000000       0.00000000      51.99610000       97        3
Cr       3.60000000       9.00000000       1.80000000      51.99610000       98        3
Cr       5.40000000       7.20000000       1.80000000      51.99610000       99        3
Mn       5.40000000       9.00000000       0.00000000      54.93804400      100        5
Cr       3.60000000       7.20000000       3.60000000      51.99610000      101        3
Cr       3.60000000       9.00000000       5.40000000      51.99610000      102        3
Co       5.40000000       7.20000000       5.40000000      58.93319400      103        1
Co       5.40000000       9.00000000       3.60000000      58.93319400      104        1
Mn       3.60000000       7.20000000       7.20000000      54.93804400      105        5
Fe       3.60000000       9.00000000       9.00000000      55.84500000      106        4
Mn       5.40000000       7.20000000       9.00000000      54.93804400      107        5
Co       5.40000000       9.00000000       7.20000000      58.93319400      108        1
Fe       3.60000000       7.20000000      10.80000000      55.84500000      109        4
Co       3.60000000       9.00000000      12.60000000      58.93319400      110        1
Fe       5.40000000       7.20000000      12.60000000      55.84500000      111        4
Mn       5.40000000       9.00000000      10.80000000      54.93804400      112        5
Mn       3.60000000      10.80000000       0.00000000      54.93804400      113        5
Fe       3.60000000      12.60000000       1.80000000      55.84500000      114        4
Fe       5.40000000      10.80000000       1.80000000      55.84500000      115        4
Fe       5.40000000      12.60000000       0.00000000      55.84500000      116        4
Co       3.60000000      10.80000000       3.60000000      58.93319400      117        1
Mn       3.60000000      12.60000000       5.40000000      54.93804400      118        5
Fe       5.40000000      10.80000000       5.40000000      55.84500000      119        4
Mn       5.40000000      12.60000000       3.60000000      54.93804400      120        5
Mn       3.60000000      10.80000000       7.20000000      54.93804400      121        5
Cr       3.60000000      12.60000000       9.00000000      51.99610000      122        3
Co       5.40000000      10.80000000       9.00000000      58.93319400      123        1
Co       5.40000000      12.60000000       7.20000000      58.93319400      124        1
Cr       3.60000000      10.80000000      10.80000000      51.99610000      125        3
Co       3.60000000      12.60000000      12.60000000      58.93319400      126        1
Fe       5.40000000      10.80000000      12.60000000      55.84500000      127        4
Cr       5.40000000      12.60000000      10.80000000      51.99610000      128        3
Mn       7.20000000       0.00000000       0.00000000      54.93804400      129        5
Mn       7.20000000       1.80000000       1.80000000      54.93804400      130        5
Fe       9.00000000       0.00000000       1.80000000      55.84500000      131        4
Fe       9.00000000       1.80000000       0.00000000      55.84500000      132        4
Ni       7.20000000       0.00000000       3.60000000      58.69340000      133        2
Cr       7.20000000       1.80000000       5.40000000      51.99610000      134        3
Ni       9.00000000       0.00000000       5.40000000      58.69340000      135        2
Ni       9.00000000       1.80000000       3.60000000      58.69340000      136        2
Mn       7.20000000       0.00000000       7.20000000      54.93804400      137        5
Co       7.20000000       1.80000000       9.00000000      58.93319400      138        1
Mn       9.00000000       0.00000000       9.00000000      54.93804400      139        5
Cr       9.00000000       1.80000000       7.20000000      51.99610000      140        3
Mn       7.20000000       0.00000000      10.80000000      54.93804400      141        5
Co       7.20000000       1.80000000      12.60000000      58.93319400      142        1
Fe       9.00000000       0.00000000      12.60000000      55.84500000      143        4
Mn       9.00000000       1.80000000      10.80000000      54.93804400      144        5
Ni       7.20000000       3.60000000       0.00000000      58.69340000      145        2
Cr       7.20000000       5.40000000       1.80000000      51.99610000      146        3
Mn       9.00000000       3.60000000       1.80000000      54.93804400      147        5
Ni       9.00000000       5.40000000       0.00000000      58.69340000      148        2
Mn       7.20000000       3.60000000       3.60000000      54.93804400      149        5
Cr       7.20000000       5.40000000       5.40000000      51.99610000      150        3
Co       9.00000000       3.60000000       5.40000000      58.93319400      151        1
Co       9.00000000       5.40000000       3.60000000      58.93319400      152        1
Cr       7.20000000       3.60000000       7.20000000      51.99610000      153        3
Co       7.20000000       5.40000000       9.00000000      58.93319400      154        1
Cr       9.00000000       3.60000000       9.00000000      51.99610000      155        3
Co       9.00000000       5.40000000       7.20000000      58.93319400      156        1
Mn       7.20000000       3.60000000      10.80000000      54.93804400      157        5
Fe       7.20000000       5.40000000      12.60000000      55.84500000      158        4
Mn       9.00000000       3.60000000      12.60000000      54.93804400      159        5
Mn       9.00000000       5.40000000      10.80000000      54.93804400      160        5
Co       7.20000000       7.20000000       0.00000000      58.93319400      161        1
Co       7.20000000       9.00000000       1.80000000      58.93319400      162        1
Cr       9.00000000       7.20000000       1.80000000      51.99610000      163        3
Mn       9.00000000       9.00000000       0.00000000      54.93804400      164        5
Cr       7.20000000       7.20000000       3.60000000      51.99610000      165        3
Cr       7.20000000       9.00000000       5.40000000      51.99610000      166        3
Mn       9.00000000       7.20000000       5.40000000      54.93804400      167        5
Co       9.00000000       9.00000000       3.60000000      58.93319400      168        1
Cr       7.20000000       7.20000000       7.20000000      51.99610000      169        3
Fe       7.20000000       9.00000000       9.00000000      55.84500000      170        4
Mn       9.00000000       7.20000000       9.00000000      54.93804400      171        5
Co       9.00000000       9.00000000       7.20000000      58.93319400      172        1
Fe       7.20000000       7.20000000      10.80000000      55.84500000      173        4
Fe       7.20000000       9.00000000      12.60000000      55.84500000      174        4
Mn       9.00000000       7.20000000      12.60000000      54.93804400      175        5
Fe       9.00000000       9.00000000      10.80000000      55.84500000      176        4
Fe       7.20000000      10.80000000       0.00000000      55.84500000      177        4
Co       7.20000000      12.60000000       1.80000000      58.93319400      178        1
Mn       9.00000000      10.80000000       1.80000000      54.93804400      179        5
Fe       9.00000000      12.60000000       0.00000000      55.84500000      180        4
Mn       7.20000000      10.80000000       3.60000000      54.93804400      181        5
Fe       7.20000000      12.60000000       5.40000000      55.84500000      182        4
Fe       9.00000000      10.80000000       5.40000000      55.84500000      183        4
Mn       9.00000000      12.60000000       3.60000000      54.93804400      184        5
Mn       7.20000000      10.80000000       7.20000000      54.93804400      185        5
Co       7.20000000      12.60000000       9.00000000      58.93319400      186        1
Fe       9.00000000      10.80000000       9.00000000      55.84500000      187        4
Fe       9.00000000      12.60000000       7.20000000      55.84500000      188        4
Fe       7.20000000      10.80000000      10.80000000      55.84500000      189        4
Co       7.20000000      12.60000000      12.60000000      58.93319400      190        1
Mn       9.00000000      10.80000000      12.60000000      54.93804400      191        5
Mn       9.00000000      12.60000000      10.80000000      54.93804400      192        5
Mn      10.80000000       0.00000000       0.00000000      54.93804400      193        5
Co      10.80000000       1.80000000       1.80000000      58.93319400      194        1
Mn      12.60000000       0.00000000       1.80000000      54.93804400      195        5
Mn      12.60000000       1.80000000       0.00000000      54.93804400      196        5
Ni      10.80000000       0.00000000       3.60000000      58.69340000      197        2
Ni      10.80000000       1.80000000       5.40000000      58.69340000      198        2
Ni      12.60000000       0.00000000       5.40000000      58.69340000      199        2
Cr      12.60000000       1.80000000       3.60000000      51.99610000      200        3
Ni      10.80000000       0.00000000       7.20000000      58.69340000      201        2
Co      10.80000000       1.80000000       9.00000000      58.93319400      202        1
Ni      12.60000000       0.00000000       9.00000000      58.69340000      203        2
Ni      12.60000000       1.80000000       7.20000000      58.69340000      204        2
Fe      10.80000000       0.00000000      10.80000000      55.84500000      205        4
Fe      10.80000000       1.80000000      12.60000000      55.84500000      206        4
Fe      12.60000000       0.00000000      12.60000000      55.84500000      207        4
Mn      12.60000000       1.80000000      10.80000000      54.93804400      208        5
Fe      10.80000000       3.60000000       0.00000000      55.84500000      209        4
Co      10.80000000       5.40000000       1.80000000      58.93319400      210        1
Cr      12.60000000       3.60000000       1.80000000      51.99610000      211        3
Mn      12.60000000       5.40000000       0.00000000      54.93804400      212        5
Cr      10.80000000       3.60000000       3.60000000      51.99610000      213        3
Cr      10.80000000       5.40000000       5.40000000      51.99610000      214        3
Ni      12.60000000       3.60000000       5.40000000      58.69340000      215        2
Cr      12.60000000       5.40000000       3.60000000      51.99610000      216        3
Cr      10.80000000       3.60000000       7.20000000      51.99610000      217        3
Co      10.80000000       5.40000000       9.00000000      58.93319400      218        1
Mn      12.60000000       3.60000000       9.00000000      54.93804400      219        5
Cr      12.60000000       5.40000000       7.20000000      51.99610000      220        3
Co      10.80000000       3.60000000      10.80000000      58.93319400      221        1
Fe      10.80000000       5.40000000      12.60000000      55.84500000      222        4
Fe      12.60000000       3.60000000      12.60000000      55.84500000      223        4
Mn      12.60000000       5.40000000      10.80000000      54.93804400      224        5
Ni      10.80000000       7.20000000       0.00000000      58.69340000      225        2
Fe      10.80000000       9.00000000       1.80000000      55.84500000      226        4
Ni      12.60000000       7.20000000       1.80000000      58.69340000      227        2
Ni      12.60000000       9.00000000       0.00000000      58.69340000      228        2
Cr      10.80000000       7.20000000       3.60000000      51.99610000      229        3
Mn      10.80000000       9.00000000       5.40000000      54.93804400      230        5
Co      12.60000000       7.20000000       5.40000000      58.93319400      231        1
Mn      12.60000000       9.00000000       3.60000000      54.93804400      232        5
Fe      10.80000000       7.20000000       7.20000000      55.84500000      233        4
Mn      10.80000000       9.00000000       9.00000000      54.93804400      234        5
Ni      12.60000000       7.20000000       9.00000000      58.69340000      235        2
Ni      12.60000000       9.00000000       7.20000000      58.69340000      236        2
Co      10.80000000       7.20000000      10.80000000      58.93319400      237        1
Ni      10.80000000       9.00000000      12.60000000      58.69340000      238        2
Cr      12.60000000       7.20000000      12.60000000      51.99610000      239        3
Ni      12.60000000       9.00000000      10.80000000      58.69340000      240        2
Fe      10.80000000      10.80000000       0.00000000      55.84500000      241        4
Co      10.80000000      12.60000000       1.80000000      58.93319400      242        1
Fe      12.60000000      10.80000000       1.80000000      55.84500000      243        4
Mn      12.60000000      12.60000000       0.00000000      54.93804400      244        5
Fe      10.80000000      10.80000000       3.60000000      55.84500000      245        4
Fe      10.80000000      12.60000000       5.40000000      55.84500000      246        4
Fe      12.60000000      10.80000000       5.40000000      55.84500000      247        4
Mn      12.60000000      12.60000000       3.60000000      54.93804400      248        5
Ni      10.80000000      10.80000000       7.20000000      58.69340000      249        2
Ni      10.80000000      12.60000000       9.00000000      58.69340000      250        2
Ni      12.60000000      10.80000000       9.00000000      58.69340000      251        2
Ni      12.60000000      12.60000000       7.20000000      58.69340000      252        2
Ni      10.80000000      10.80000000      10.80000000      58.69340000      253        2
Fe      10.80000000      12.60000000      12.60000000      55.84500000      254        4
Ni      12.60000000      10.80000000      12.60000000      58.69340000      255        2
Ni      12.60000000      12.60000000      10.80000000      58.69340000      256        2
