256
Lattice="14.4 0.0 0.0 0.0 14.4 0.0 0.0 0.0 14.4" Properties=species:S:1:pos:R:3:masses:R:1:id:I:1:type:I:1 comment="(written by ASE)" energy=-1020.74334274323 pbc="T T T"
Ni       0.00000000       0.00000000       0.00000000      58.69340000        1        2
Fe       0.00000000       1.80000000       1.80000000      55.84500000        2        4
Co       1.80000000       0.00000000       1.80000000      58.93319400        3        1
Mn       1.80000000       1.80000000       0.00000000      54.93804400        4        5
Cr       0.00000000       0.00000000       3.60000000      51.99610000        5        3
Mn       0.00000000       1.80000000       5.40000000      54.93804400        6        5
Co       1.80000000       0.00000000       5.40000000      58.93319400        7        1
Mn       1.80000000       1.80000000       3.60000000      54.93804400        8        5
Co       0.00000000       0.00000000       7.20000000      58.93319400        9        1
Mn       0.00000000       1.80000000       9.00000000      54.93804400       10        5
Co       1.80000000       0.00000000       9.00000000      58.93319400       11        1
Mn       1.80000000       1.80000000       7.20000000      54.93804400       12        5
Cr       0.00000000       0.00000000      10.80000000      51.99610000       13        3
Fe       0.00000000       1.80000000      12.60000000      55.84500000       14        4
Cr       1.80000000       0.00000000      12.60000000      51.99610000       15        3
Fe       1.80000000       1.80000000      10.80000000      55.84500000       16        4
Mn       0.00000000       3.60000000       0.00000000      54.93804400       17        5
Fe       0.00000000       5.40000000       1.80000000      55.84500000       18        4
Cr       1.80000000       3.60000000       1.80000000      51.99610000       19        3
Fe       1.80000000       5.40000000       0.00000000      55.84500000       20        4
Fe       0.00000000       3.60000000       3.60000000      55.84500000       21        4
Mn       0.00000000       5.40000000       5.40000000      54.93804400       22        5
Cr       1.80000000       3.60000000       5.40000000      51.99610000       23        3
Fe       1.80000000       5.40000000       3.60000000      55.84500000       24        4
Ni       0.00000000       3.60000000       7.20000000      58.69340000       25        2
Co       0.00000000       5.40000000       9.00000000      58.93319400       26        1
Cr       1.80000000       3.60000000       9.00000000      51.99610000       27        3
Ni       1.80000000       5.40000000       7.20000000      58.69340000       28        2
Mn       0.00000000       3.60000000      10.80000000      54.93804400       29        5
Ni       0.00000000       5.40000000      12.60000000      58.69340000       30        2
Cr       1.80000000       3.60000000      12.60000000      51.99610000       31        3
Ni       1.80000000       5.40000000      10.80000000      58.69340000       32        2
Fe       0.00000000       7.20000000       0.00000000      55.84500000       33        4
Mn       0.00000000       9.00000000       1.80000000      54.93804400       34        5
Mn       1.80000000       7.20000000       1.80000000      54.93804400       35        5
Cr       1.80000000       9.00000000       0.00000000      51.99610000       36        3
Cr       0.00000000       7.20000000       3.60000000      51.99610000       37        3
Mn       0.00000000       9.00000000       5.40000000      54.93804400       38        5
Ni       1.80000000       7.20000000       5.40000000      58.69340000       39        2
Fe       1.80000000       9.00000000       3.60000000      55.84500000       40        4
Co       0.00000000       7.20000000       7.20000000      58.93319400       41        1
Co       0.00000000       9.00000000       9.00000000      58.93319400       42        1
Co       1.80000000       7.20000000       9.00000000      58.93319400       43        1
Co       1.80000000       9.00000000       7.20000000      58.93319400       44        1
Co       0.00000000       7.20000000      10.80000000      58.93319400       45        1
Mn       0.00000000       9.00000000      12.60000000      54.93804400       46        5
Mn       1.80000000       7.20000000      12.60000000      54.93804400       47        5
Co       1.80000000       9.00000000      10.80000000      58.93319400       48        1
Cr       0.00000000      10.80000000       0.00000000      51.99610000       49        3
Ni       0.00000000      12.60000000       1.80000000      58.69340000       50        2
Mn       1.80000000      10.80000000       1.80000000      54.93804400       51        5
Co       1.80000000      12.60000000       0.00000000      58.93319400       52        1
Cr       0.00000000      10.80000000       3.60000000      51.99610000       53        3
Co       0.00000000      12.60000000       5.40000000      58.93319400       54        1
Co       1.80000000      10.80000000       5.40000000      58.93319400       55        1
Ni       1.80000000      12.60000000       3.60000000      58.69340000       56        2
Co       0.00000000      10.80000000       7.20000000      58.93319400       57        1
Mn       0.00000000      12.60000000       9.00000000      54.93804400       58        5
Co       1.80000000      10.80000000       9.00000000      58.93319400       59        1
Co       1.80000000      12.60000000       7.20000000      58.93319400       60        1
Cr       0.00000000      10.80000000      10.80000000      51.99610000       61        3
Mn       0.00000000      12.60000000      12.60000000      54.93804400       62        5
Co       1.80000000      10.80000000      12.60000000      58.93319400       63        1
Ni       1.80000000      12.60000000      10.80000000      58.69340000       64        2
Co       3.60000000       0.00000000       0.00000000      58.93319400       65        1
Ni       3.60000000       1.80000000       1.80000000      58.69340000       66        2
Ni       5.40000000       0.00000000       1.80000000      58.69340000       67        2
Cr       5.40000000       1.80000000       0.00000000      51.99610000       68        3
Co       3.60000000       0.00000000       3.60000000      58.93319400       69        1
Co       3.60000000       1.80000000       5.40000000      58.93319400       70        1
Co       5.40000000       0.00000000       5.40000000      58.93319400       71        1
Co       5.40000000       1.80000000       3.60000000      58.93319400       72        1
Co       3.60000000       0.00000000       7.20000000      58.93319400       73        1
Cr       3.60000000       1.80000000       9.00000000      51.99610000       74        3
Ni       5.40000000       0.00000000       9.00000000      58.69340000       75        2
Mn       5.40000000       1.80000000       7.20000000      54.93804400       76        5
Mn       3.60000000       0.00000000      10.80000000      54.93804400       77        5
Fe       3.60000000       1.80000000      12.60000000      55.84500000       78        4
Co       5.40000000       0.00000000      12.60000000      58.93319400       79        1
Fe       5.40000000       1.80000000      10.80000000      55.84500000       80        4
Mn       3.60000000       3.60000000       0.00000000      54.93804400       81        5
Cr       3.60000000       5.40000000       1.80000000      51.99610000       82        3
Cr       5.40000000       3.60000000       1.80000000      51.99610000       83        3
Fe       5.40000000       5.40000000       0.00000000      55.84500000       84        4
Ni       3.60000000       3.60000000       3.60000000      58.69340000       85        2
Mn       3.60000000       5.40000000       5.40000000      54.93804400       86        5
Cr       5.40000000       3.60000000       5.40000000      51.99610000       87        3
Cr       5.40000000       5.40000000       3.60000000      51.99610000       88        3
Ni       3.60000000       3.60000000       7.20000000      58.69340000       89        2
Mn       3.60000000       5.40000000       9.00000000      54.93804400       90        5
Fe       5.40000000       3.60000000       9.00000000      55.84500000       91        4
Mn       5.40000000       5.40000000       7.20000000      54.93804400       92        5
Fe       3.60000000       3.60000000      10.80000000      55.84500000       93        4
Fe       3.60000000       5.40000000      12.60000000      55.84500000       94        4
Fe       5.40000000       3.60000000      12.60000000      55.84500000       95        4
Cr       5.40000000       5.40000000      10.80000000      51.99610000       96        3
Ni       3.60000000       7.20000000       0.00000000      58.69340000       97        2
Ni       3.60000000       9.00000000       1.80000000      58.69340000       98        2
Fe       5.40000000       7.20000000       1.80000000      55.84500000       99        4
Co       5.40000000       9.00000000       0.00000000      58.93319400      100        1
Fe       3.60000000       7.20000000       3.60000000      55.84500000      101        4
Mn       3.60000000       9.00000000       5.40000000      54.93804400      102        5
Ni       5.40000000       7.20000000       5.40000000      58.69340000      103        2
Ni       5.40000000       9.00000000       3.60000000      58.69340000      104        2
Ni       3.60000000       7.20000000       7.20000000      58.69340000      105        2
Co       3.60000000       9.00000000       9.00000000      58.93319400      106        1
Ni       5.40000000       7.20000000       9.00000000      58.69340000      107        2
Mn       5.40000000       9.00000000       7.20000000      54.93804400      108        5
Co       3.60000000       7.20000000      10.80000000      58.93319400      109        1
Ni       3.60000000       9.00000000      12.60000000      58.69340000      110        2
Cr       5.40000000       7.20000000      12.60000000      51.99610000      111        3
Co       5.40000000       9.00000000      10.80000000      58.93319400      112        1
Co       3.60000000      10.80000000       0.00000000      58.93319400      113        1
Co       3.60000000      12.60000000       1.80000000      58.93319400      114        1
Co       5.40000000      10.80000000       1.80000000      58.93319400      115        1
Co       5.40000000      12.60000000       0.00000000      58.93319400      116        1
Co       3.60000000      10.80000000       3.60000000      58.93319400      117        1
Co       3.60000000      12.60000000       5.40000000      58.93319400      118        1
Cr       5.40000000      10.80000000       5.40000000      51.99610000      119        3
Mn       5.40000000      12.60000000       3.60000000      54.93804400      120        5
Co       3.60000000      10.80000000       7.20000000      58.93319400      121        1
Co       3.60000000      12.60000000       9.00000000      58.93319400      122        1
Co       5.40000000      10.80000000       9.00000000      58.93319400      123        1
Co       5.40000000      12.60000000       7.20000000      58.93319400      124        1
Co       3.60000000      10.80000000      10.80000000      58.93319400      125        1
Co       3.60000000      12.60000000      12.60000000      58.93319400      126        1
Co       5.40000000      10.80000000      12.60000000      58.93319400      127        1
Co       5.40000000      12.60000000      10.80000000      58.93319400      128        1
Mn       7.20000000       0.00000000       0.00000000      54.93804400      129        5
Ni       7.20000000       1.80000000       1.80000000      58.69340000      130        2
Mn       9.00000000       0.00000000       1.80000000      54.93804400      131        5
Mn       9.00000000       1.80000000       0.00000000      54.93804400      132        5
Mn       7.20000000       0.00000000       3.60000000      54.93804400      133        5
Ni       7.20000000       1.80000000       5.40000000      58.69340000      134        2
Cr       9.00000000       0.00000000       5.40000000      51.99610000      135        3
Ni       9.00000000       1.80000000       3.60000000      58.69340000      136        2
Co       7.20000000       0.00000000       7.20000000      58.93319400      137        1
Cr       7.20000000       1.80000000       9.00000000      51.99610000      138        3
Fe       9.00000000       0.00000000       9.00000000      55.84500000      139        4
Mn       9.00000000       1.80000000       7.20000000      54.93804400      140        5
Mn       7.20000000       0.00000000      10.80000000      54.93804400      141        5
Fe       7.20000000       1.80000000      12.60000000      55.84500000      142        4
Fe       9.00000000       0.00000000      12.60000000      55.84500000      143        4
Fe       9.00000000       1.80000000      10.80000000      55.84500000      144        4
Fe       7.20000000       3.60000000       0.00000000      55.84500000      145        4
Mn       7.20000000       5.40000000       1.80000000      54.93804400      146        5
Cr       9.00000000       3.60000000       1.80000000      51.99610000      147        3
Fe       9.00000000       5.40000000       0.00000000      55.84500000      148        4
Mn       7.20000000       3.60000000       3.60000000      54.93804400      149        5
Mn       7.20000000       5.40000000       5.40000000      54.93804400      150        5
Cr       9.00000000       3.60000000       5.40000000      51.99610000      151        3
Ni       9.00000000       5.40000000       3.60000000      58.69340000      152        2
Ni       7.20000000       3.60000000       7.20000000      58.69340000      153        2
Mn       7.20000000       5.40000000       9.00000000      54.93804400      154        5
Fe       9.00000000       3.60000000       9.00000000      55.84500000      155        4
Mn       9.00000000       5.40000000       7.20000000      54.93804400      156        5
Fe       7.20000000       3.60000000      10.80000000      55.84500000      157        4
Mn       7.20000000       5.40000000      12.60000000      54.93804400      158        5
Fe       9.00000000       3.60000000      12.60000000      55.84500000      159        4
Fe       9.00000000       5.40000000      10.80000000      55.84500000      160        4
Mn       7.20000000       7.20000000       0.00000000      54.93804400      161        5
Co       7.20000000       9.00000000       1.80000000      58.93319400      162        1
Mn       9.00000000       7.20000000       1.80000000      54.93804400      163        5
Cr       9.00000000       9.00000000       0.00000000      51.99610000      164        3
Cr       7.20000000       7.20000000       3.60000000      51.99610000      165        3
Fe       7.20000000       9.00000000       5.40000000      55.84500000      166        4
Ni       9.00000000       7.20000000       5.40000000      58.69340000      167        2
Ni       9.00000000       9.00000000       3.60000000      58.69340000      168        2
Cr       7.20000000       7.20000000       7.20000000      51.99610000      169        3
Ni       7.20000000       9.00000000       9.00000000      58.69340000      170        2
Fe       9.00000000       7.20000000       9.00000000      55.84500000      171        4
Cr       9.00000000       9.00000000       7.20000000      51.99610000      172        3
Mn       7.20000000       7.20000000      10.80000000      54.93804400      173        5
Ni       7.20000000       9.00000000      12.60000000      58.69340000      174        2
Cr       9.00000000       7.20000000      12.60000000      51.99610000      175        3
Mn       9.00000000       9.00000000      10.80000000      54.93804400      176        5
Co       7.20000000      10.80000000       0.00000000      58.93319400      177        1
Ni       7.20000000      12.60000000       1.80000000      58.69340000      178        2
Ni       9.00000000      10.80000000       1.80000000      58.69340000      179        2
Cr       9.00000000      12.60000000       0.00000000      51.99610000      180        3
Cr       7.20000000      10.80000000       3.60000000      51.99610000      181        3
Ni       7.20000000      12.60000000       5.40000000      58.69340000      182        2
Mn       9.00000000      10.80000000       5.40000000      54.93804400      183        5
Ni       9.00000000      12.60000000       3.60000000      58.69340000      184        2
Cr       7.20000000      10.80000000       7.20000000      51.99610000      185        3
Mn       7.20000000      12.60000000       9.00000000      54.93804400      186        5
Fe       9.00000000      10.80000000       9.00000000      55.84500000      187        4
Mn       9.00000000      12.60000000       7.20000000      54.93804400      188        5
Ni       7.20000000      10.80000000      10.80000000      58.69340000      189        2
Co       7.20000000      12.60000000      12.60000000      58.93319400      190        1
Mn       9.00000000      10.80000000      12.60000000      54.93804400      191        5
Cr       9.00000000      12.60000000      10.80000000      51.99610000      192        3
Fe      10.80000000       0.00000000       0.00000000      55.84500000      193        4
Fe      10.80000000       1.80000000       1.80000000      55.84500000      194        4
Mn      12.60000000       0.00000000       1.80000000      54.93804400      195        5
Fe      12.60000000       1.80000000       0.00000000      55.84500000      196        4
Cr      10.80000000       0.00000000       3.60000000      51.99610000      197        3
Ni      10.80000000       1.80000000       5.40000000      58.69340000      198        2
Ni      12.60000000       0.00000000       5.40000000      58.69340000      199        2
Fe      12.60000000       1.80000000       3.60000000      55.84500000      200        4
Ni      10.80000000       0.00000000       7.20000000      58.69340000      201        2
Cr      10.80000000       1.80000000       9.00000000      51.99610000      202        3
Mn      12.60000000       0.00000000       9.00000000      54.93804400      203        5
Cr      12.60000000       1.80000000       7.20000000      51.99610000      204        3
Mn      10.80000000       0.00000000      10.80000000      54.93804400      205        5
Fe      10.80000000       1.80000000      12.60000000      55.84500000      206        4
Fe      12.60000000       0.00000000      12.60000000      55.84500000      207        4
Ni      12.60000000       1.80000000      10.80000000      58.69340000      208        2
Fe      10.80000000       3.60000000       0.00000000      55.84500000      209        4
Fe      10.80000000       5.40000000       1.80000000      55.84500000      210        4
Cr      12.60000000       3.60000000       1.80000000      51.99610000      211        3
Fe      12.60000000       5.40000000       0.00000000      55.84500000      212        4
Mn      10.80000000       3.60000000       3.60000000      54.93804400      213        5
Cr      10.80000000       5.40000000       5.40000000      51.99610000      214        3
Cr      12.60000000       3.60000000       5.40000000      51.99610000      215        3
Mn      12.60000000       5.40000000       3.60000000      54.93804400      216        5
Mn      10.80000000       3.60000000       7.20000000      54.93804400      217        5
Cr      10.80000000       5.40000000       9.00000000      51.99610000      218        3
Ni      12.60000000       3.60000000       9.00000000      58.69340000      219        2
Ni      12.60000000       5.40000000       7.20000000      58.69340000      220        2
Mn      10.80000000       3.60000000      10.80000000      54.93804400      221        5
Fe      10.80000000       5.40000000      12.60000000      55.84500000      222        4
Cr      12.60000000       3.60000000      12.60000000      51.99610000      223        3
Mn      12.60000000       5.40000000      10.80000000      54.93804400      224        5
Fe      10.80000000       7.20000000       0.00000000      55.84500000      225        4
Mn      10.80000000       9.00000000       1.80000000      54.93804400      226        5
Fe      12.60000000       7.20000000       1.80000000      55.84500000      227        4
Fe      12.60000000       9.00000000       0.00000000      55.84500000      228        4
Cr      10.80000000       7.20000000       3.60000000      51.99610000      229        3
Mn      10.80000000       9.00000000       5.40000000      54.93804400      230        5
Ni      12.60000000       7.20000000       5.40000000      58.69340000      231        2
Ni      12.60000000       9.00000000       3.60000000      58.69340000      232        2
Ni      10.80000000       7.20000000       7.20000000      58.69340000      233        2
Mn      10.80000000       9.00000000       9.00000000      54.93804400      234        5
Co      12.60000000       7.20000000       9.00000000      58.93319400      235        1
Co      12.60000000       9.00000000       7.20000000      58.93319400      236        1
Fe      10.80000000       7.20000000      10.80000000      55.84500000      237        4
Fe      10.80000000       9.00000000      12.60000000      55.84500000      238        4
Mn      12.60000000       7.20000000      12.60000000      54.93804400      239        5
Cr      12.60000000       9.00000000      10.80000000      51.99610000      240        3
Mn      10.80000000      10.80000000       0.00000000      54.93804400      241        5
Ni      10.80000000      12.60000000       1.80000000      58.69340000      242        2
Fe      12.60000000      10.80000000       1.80000000      55.84500000      243        4
Cr      12.60000000      12.60000000       0.00000000      51.99610000      244        3
Cr      10.80000000      10.80000000       3.60000000      51.99610000      245        3
Fe      10.80000000      12.60000000       5.40000000      55.84500000      246        4
Mn      12.60000000      10.80000000       5.40000000      54.93804400      247        5
Mn      12.60000000      12.60000000       3.60000000      54.93804400      248        5
Ni      10.80000000      10.80000000       7.20000000      58.69340000      249        2
Fe      10.80000000      12.60000000       9.00000000      55.84500000      250        4
Mn      12.60000000      10.80000000       9.00000000      54.93804400      251        5
Cr      12.60000000      12.60000000       7.20000000      51.99610000      252        3
Fe      10.80000000      10.80000000      10.80000000      55.84500000      253        4
Fe      10.80000000      12.60000000      12.60000000      55.84500000      254        4
Fe      12.60000000      10.80000000      12.60000000      55.84500000      255        4
Fe      12.60000000      12.60000000      10.80000000      55.84500000      256        4
