256
Lattice="14.4 0.0 0.0 0.0 14.4 0.0 0.0 0.0 14.4" Properties=species:S:1:pos:R:3:masses:R:1:id:I:1:type:I:1 comment="(written by ASE)" energy=-1019.9820845319 pbc="T T T"
Mn       0.00000000       0.00000000       0.00000000      54.93804400        1        5
Fe       0.00000000       1.80000000       1.80000000      55.84500000        2        4
Co       1.80000000       0.00000000       1.80000000      58.93319400        3        1
Co       1.80000000       1.80000000       0.00000000      58.93319400        4        1
Mn       0.00000000       0.00000000       3.60000000      54.93804400        5        5
Ni       0.00000000       1.80000000       5.40000000      58.69340000        6        2
Ni       1.80000000       0.00000000       5.40000000      58.69340000        7        2
Co       1.80000000       1.80000000       3.60000000      58.93319400        8        1
Co       0.00000000       0.00000000       7.20000000      58.93319400        9        1
Co       0.00000000       1.80000000       9.00000000      58.93319400       10        1
Mn       1.80000000       0.00000000       9.00000000      54.93804400       11        5
Mn       1.80000000       1.80000000       7.20000000      54.93804400       12        5
Mn       0.00000000       0.00000000      10.80000000      54.93804400       13        5
Cr       0.00000000       1.80000000      12.60000000      51.99610000       14        3
Co       1.80000000       0.00000000      12.60000000      58.93319400       15        1
Fe       1.80000000       1.80000000      10.80000000      55.84500000       16        4
Fe       0.00000000       3.60000000       0.00000000      55.84500000       17        4
Fe       0.00000000       5.40000000       1.80000000      55.84500000       18        4
Cr       1.80000000       3.60000000       1.80000000      51.99610000       19        3
Mn       1.80000000       5.40000000       0.00000000      54.93804400       20        5
Mn       0.00000000       3.60000000       3.60000000      54.93804400       21        5
Co       0.00000000       5.40000000       5.40000000      58.93319400       22        1
Ni       1.80000000       3.60000000       5.40000000      58.69340000       23        2
Mn       1.80000000       5.40000000       3.60000000      54.93804400       24        5
Ni       0.00000000       3.60000000       7.20000000      58.69340000       25        2
Mn       0.00000000       5.40000000       9.00000000      54.93804400       26        5
Mn       1.80000000       3.60000000       9.00000000      54.93804400       27        5
Mn       1.80000000       5.40000000       7.20000000      54.93804400       28        5
Co       0.00000000       3.60000000      10.80000000      58.93319400       29        1
Cr       0.00000000       5.40000000      12.60000000      51.99610000       30        3
Mn       1.80000000       3.60000000      12.60000000      54.93804400       31        5
Mn       1.80000000       5.40000000      10.80000000      54.93804400       32        5
Fe       0.00000000       7.20000000       0.00000000      55.84500000       33        4
Mn       0.00000000       9.00000000       1.80000000      54.93804400       34        5
Co       1.80000000       7.20000000       1.80000000      58.93319400       35        1
Co       1.80000000       9.00000000       0.00000000      58.93319400       36        1
Mn       0.00000000       7.20000000       3.60000000      54.93804400       37        5
Co       0.00000000       9.00000000       5.40000000      58.93319400       38        1
Cr       1.80000000       7.20000000       5.40000000      51.99610000       39        3
Mn       1.80000000       9.00000000       3.60000000      54.93804400       40        5
Fe       0.00000000       7.20000000       7.20000000      55.84500000       41        4
Cr       0.00000000       9.00000000       9.00000000      51.99610000       42        3
Cr       1.80000000       7.20000000       9.00000000      51.99610000       43        3
Mn       1.80000000       9.00000000       7.20000000      54.93804400       44        5
Fe       0.00000000       7.20000000      10.80000000      55.84500000       45        4
Mn       0.00000000       9.00000000      12.60000000      54.93804400       46        5
Mn       1.80000000       7.20000000      12.60000000      54.93804400       47        5
Fe       1.80000000       9.00000000      10.80000000      55.84500000       48        4
Ni       0.00000000      10.80000000       0.00000000      58.69340000       49        2
Ni       0.00000000      12.60000000       1.80000000      58.69340000       50        2
Co       1.80000000      10.80000000       1.80000000      58.93319400       51        1
Mn       1.80000000      12.60000000       0.00000000      54.93804400       52        5
Co       0.00000000      10.80000000       3.60000000      58.93319400       53        1
Ni       0.00000000      12.60000000       5.40000000      58.69340000       54        2
Ni       1.80000000      10.80000000       5.40000000      58.69340000       55        2
Ni       1.80000000      12.60000000       3.60000000      58.69340000       56        2
Co       0.00000000      10.80000000       7.20000000      58.93319400       57        1
Cr       0.00000000      12.60000000       9.00000000      51.99610000       58        3
Fe       1.80000000      10.80000000       9.00000000      55.84500000       59        4
Mn       1.80000000      12.60000000       7.20000000      54.93804400       60        5
Mn       0.00000000      10.80000000      10.80000000      54.93804400       61        5
Co       0.00000000      12.60000000      12.60000000      58.93319400       62        1
Fe       1.80000000      10.80000000      12.60000000      55.84500000       63        4
Mn       1.80000000      12.60000000      10.80000000      54.93804400       64        5
Mn       3.60000000       0.00000000       0.00000000      54.93804400       65        5
Mn       3.60000000       1.80000000       1.80000000      54.93804400       66        5
Ni       5.40000000       0.00000000       1.80000000      58.69340000       67        2
Co       5.40000000       1.80000000       0.00000000      58.93319400       68        1
Ni       3.60000000       0.00000000       3.60000000      58.69340000       69        2
Mn       3.60000000       1.80000000       5.40000000      54.93804400       70        5
Ni       5.40000000       0.00000000       5.40000000      58.69340000       71        2
Co       5.40000000       1.80000000       3.60000000      58.93319400       72        1
Co       3.60000000       0.00000000       7.20000000      58.93319400       73        1
Cr       3.60000000       1.80000000       9.00000000      51.99610000       74        3
Cr       5.40000000       0.00000000       9.00000000      51.99610000       75        3
Fe       5.40000000       1.80000000       7.20000000      55.84500000       76        4
Fe       3.60000000       0.00000000      10.80000000      55.84500000       77        4
Cr       3.60000000       1.80000000      12.60000000      51.99610000       78        3
Fe       5.40000000       0.00000000      12.60000000      55.84500000       79        4
Fe       5.40000000       1.80000000      10.80000000      55.84500000       80        4
Mn       3.60000000       3.60000000       0.00000000      54.93804400       81        5
Co       3.60000000       5.40000000       1.80000000      58.93319400       82        1
Ni       5.40000000       3.60000000       1.80000000      58.69340000       83        2
Cr       5.40000000       5.40000000       0.00000000      51.99610000       84        3
Ni       3.60000000       3.60000000       3.60000000      58.69340000       85        2
Ni       3.60000000       5.40000000       5.40000000      58.69340000       86        2
Ni       5.40000000       3.60000000       5.40000000      58.69340000       87        2
Ni       5.40000000       5.40000000       3.60000000      58.69340000       88        2
Co       3.60000000       3.60000000       7.20000000      58.93319400       89        1
Mn       3.60000000       5.40000000       9.00000000      54.93804400       90        5
Fe       5.40000000       3.60000000       9.00000000      55.84500000       91        4
Cr       5.40000000       5.40000000       7.20000000      51.99610000       92        3
Co       3.60000000       3.60000000      10.80000000      58.93319400       93        1
Co       3.60000000       5.40000000      12.60000000      58.93319400       94        1
Mn       5.40000000       3.60000000      12.60000000      54.93804400       95        5
Cr       5.40000000       5.40000000      10.80000000      51.99610000       96        3
Mn       3.60000000       7.20000000       0.00000000      54.93804400       97        5
Ni       3.60000000       9.00000000       1.80000000      58.69340000       98        2
Mn       5.40000000       7.20000000       1.80000000      54.93804400       99        5
Cr       5.40000000       9.00000000       0.00000000      51.99610000      100        3
Ni       3.60000000       7.20000000       3.60000000      58.69340000      101        2
Ni       3.60000000       9.00000000       5.40000000      58.69340000      102        2
Co       5.40000000       7.20000000       5.40000000      58.93319400      103        1
Mn       5.40000000       9.00000000       3.60000000      54.93804400      104        5
Co       3.60000000       7.20000000       7.20000000      58.93319400      105        1
Fe       3.60000000       9.00000000       9.00000000      55.84500000      106        4
Fe       5.40000000       7.20000000       9.00000000      55.84500000      107        4
Mn       5.40000000       9.00000000       7.20000000      54.93804400      108        5
Fe       3.60000000       7.20000000      10.80000000      55.84500000      109        4
Cr       3.60000000       9.00000000      12.60000000      51.99610000      110        3
Fe       5.40000000       7.20000000      12.60000000      55.84500000      111        4
Cr       5.40000000       9.00000000      10.80000000      51.99610000      112        3
Cr       3.60000000      10.80000000       0.00000000      51.99610000      113        3
Ni       3.60000000      12.60000000       1.80000000      58.69340000      114        2
Mn       5.40000000      10.80000000       1.80000000      54.93804400      115        5
Co       5.40000000      12.60000000       0.00000000      58.93319400      116        1
Ni       3.60000000      10.80000000       3.60000000      58.69340000      117        2
Co       3.60000000      12.60000000       5.40000000      58.93319400      118        1
Mn       5.40000000      10.80000000       5.40000000      54.93804400      119        5
Co       5.40000000      12.60000000       3.60000000      58.93319400      120        1
Cr       3.60000000      10.80000000       7.20000000      51.99610000      121        3
Fe       3.60000000      12.60000000       9.00000000      55.84500000      122        4
Fe       5.40000000      10.80000000       9.00000000      55.84500000      123        4
Mn       5.40000000      12.60000000       7.20000000      54.93804400      124        5
Cr       3.60000000      10.80000000      10.80000000      51.99610000      125        3
Cr       3.60000000      12.60000000      12.60000000      51.99610000      126        3
Fe       5.40000000      10.80000000      12.60000000      55.84500000      127        4
Fe       5.40000000      12.60000000      10.80000000      55.84500000      128        4
Cr       7.20000000       0.00000000       0.00000000      51.99610000      129        3
Ni       7.20000000       1.80000000       1.80000000      58.69340000      130        2
Co       9.00000000       0.00000000       1.80000000      58.93319400      131        1
Fe       9.00000000       1.80000000       0.00000000      55.84500000      132        4
Ni       7.20000000       0.00000000       3.60000000      58.69340000      133        2
Cr       7.20000000       1.80000000       5.40000000      51.99610000      134        3
Co       9.00000000       0.00000000       5.40000000      58.93319400      135        1
Mn       9.00000000       1.80000000       3.60000000      54.93804400      136        5
Mn       7.20000000       0.00000000       7.20000000      54.93804400      137        5
Cr       7.20000000       1.80000000       9.00000000      51.99610000      138        3
Mn       9.00000000       0.00000000       9.00000000      54.93804400      139        5
Mn       9.00000000       1.80000000       7.20000000      54.93804400      140        5
Cr       7.20000000       0.00000000      10.80000000      51.99610000      141        3
Fe       7.20000000       1.80000000      12.60000000      55.84500000      142        4
Fe       9.00000000       0.00000000      12.60000000      55.84500000      143        4
Fe       9.00000000       1.80000000      10.80000000      55.84500000      144        4
Co       7.20000000       3.60000000       0.00000000      58.93319400      145        1
Ni       7.20000000       5.40000000       1.80000000      58.69340000      146        2
Mn       9.00000000       3.60000000       1.80000000      54.93804400      147        5
Cr       9.00000000       5.40000000       0.00000000      51.99610000      148        3
Ni       7.20000000       3.60000000       3.60000000      58.69340000      149        2
Ni       7.20000000       5.40000000       5.40000000      58.69340000      150        2
Ni       9.00000000       3.60000000       5.40000000      58.69340000      151        2
Ni       9.00000000       5.40000000       3.60000000      58.69340000      152        2
Co       7.20000000       3.60000000       7.20000000      58.93319400      153        1
Fe       7.20000000       5.40000000       9.00000000      55.84500000      154        4
Cr       9.00000000       3.60000000       9.00000000      51.99610000      155        3
Co       9.00000000       5.40000000       7.20000000      58.93319400      156        1
Fe       7.20000000       3.60000000      10.80000000      55.84500000      157        4
Fe       7.20000000       5.40000000      12.60000000      55.84500000      158        4
Cr       9.00000000       3.60000000      12.60000000      51.99610000      159        3
Fe       9.00000000       5.40000000      10.80000000      55.84500000      160        4
Fe       7.20000000       7.20000000       0.00000000      55.84500000      161        4
Co       7.20000000       9.00000000       1.80000000      58.93319400      162        1
Mn       9.00000000       7.20000000       1.80000000      54.93804400      163        5
Cr       9.00000000       9.00000000       0.00000000      51.99610000      164        3
Ni       7.20000000       7.20000000       3.60000000      58.69340000      165        2
Co       7.20000000       9.00000000       5.40000000      58.93319400      166        1
Mn       9.00000000       7.20000000       5.40000000      54.93804400      167        5
Ni       9.00000000       9.00000000       3.60000000      58.69340000      168        2
Mn       7.20000000       7.20000000       7.20000000      54.93804400      169        5
Fe       7.20000000       9.00000000       9.00000000      55.84500000      170        4
Cr       9.00000000       7.20000000       9.00000000      51.99610000      171        3
Mn       9.00000000       9.00000000       7.20000000      54.93804400      172        5
Cr       7.20000000       7.20000000      10.80000000      51.99610000      173        3
Fe       7.20000000       9.00000000      12.60000000      55.84500000      174        4
Cr       9.00000000       7.20000000      12.60000000      51.99610000      175        3
Co       9.00000000       9.00000000      10.80000000      58.93319400      176        1
Fe       7.20000000      10.80000000       0.00000000      55.84500000      177        4
Mn       7.20000000      12.60000000       1.80000000      54.93804400      178        5
Mn       9.00000000      10.80000000       1.80000000      54.93804400      179        5
Cr       9.00000000      12.60000000       0.00000000      51.99610000      180        3
Co       7.20000000      10.80000000       3.60000000      58.93319400      181        1
Ni       7.20000000      12.60000000       5.40000000      58.69340000      182        2
Mn       9.00000000      10.80000000       5.40000000      54.93804400      183        5
Ni       9.00000000      12.60000000       3.60000000      58.69340000      184        2
Cr       7.20000000      10.80000000       7.20000000      51.99610000      185        3
Co       7.20000000      12.60000000       9.00000000      58.93319400      186        1
Mn       9.00000000      10.80000000       9.00000000      54.93804400      187        5
Ni       9.00000000      12.60000000       7.20000000      58.69340000      188        2
Cr       7.20000000      10.80000000      10.80000000      51.99610000      189        3
Fe       7.20000000      12.60000000      12.60000000      55.84500000      190        4
Fe       9.00000000      10.80000000      12.60000000      55.84500000      191        4
Cr       9.00000000      12.60000000      10.80000000      51.99610000      192        3
Fe      10.80000000       0.00000000       0.00000000      55.84500000      193        4
Cr      10.80000000       1.80000000       1.80000000      51.99610000      194        3
Co      12.60000000       0.00000000       1.80000000      58.93319400      195        1
Fe      12.60000000       1.80000000       0.00000000      55.84500000      196        4
Ni      10.80000000       0.00000000       3.60000000      58.69340000      197        2
Ni      10.80000000       1.80000000       5.40000000      58.69340000      198        2
Co      12.60000000       0.00000000       5.40000000      58.93319400      199        1
Mn      12.60000000       1.80000000       3.60000000      54.93804400      200        5
Mn      10.80000000       0.00000000       7.20000000      54.93804400      201        5
Cr      10.80000000       1.80000000       9.00000000      51.99610000      202        3
Mn      12.60000000       0.00000000       9.00000000      54.93804400      203        5
Ni      12.60000000       1.80000000       7.20000000      58.69340000      204        2
Co      10.80000000       0.00000000      10.80000000      58.93319400      205        1
Cr      10.80000000       1.80000000      12.60000000      51.99610000      206        3
Fe      12.60000000       0.00000000      12.60000000      55.84500000      207        4
Fe      12.60000000       1.80000000      10.80000000      55.84500000      208        4
Fe      10.80000000       3.60000000       0.00000000      55.84500000      209        4
Co      10.80000000       5.40000000       1.80000000      58.93319400      210        1
Cr      12.60000000       3.60000000       1.80000000      51.99610000      211        3
Fe      12.60000000       5.40000000       0.00000000      55.84500000      212        4
Mn      10.80000000       3.60000000       3.60000000      54.93804400      213        5
Cr      10.80000000       5.40000000       5.40000000      51.99610000      214        3
Co      12.60000000       3.60000000       5.40000000      58.93319400      215        1
Fe      12.60000000       5.40000000       3.60000000      55.84500000      216        4
Mn      10.80000000       3.60000000       7.20000000      54.93804400      217        5
Fe      10.80000000       5.40000000       9.00000000      55.84500000      218        4
Cr      12.60000000       3.60000000       9.00000000      51.99610000      219        3
Mn      12.60000000       5.40000000       7.20000000      54.93804400      220        5
Fe      10.80000000       3.60000000      10.80000000      55.84500000      221        4
Fe      10.80000000       5.40000000      12.60000000      55.84500000      222        4
Cr      12.60000000       3.60000000      12.60000000      51.99610000      223        3
Fe      12.60000000       5.40000000      10.80000000      55.84500000      224        4
Fe      10.80000000       7.20000000       0.00000000      55.84500000      225        4
Mn      10.80000000       9.00000000       1.80000000      54.93804400      226        5
Cr      12.60000000       7.20000000       1.80000000      51.99610000      227        3
Co      12.60000000       9.00000000       0.00000000      58.93319400      228        1
Co      10.80000000       7.20000000       3.60000000      58.93319400      229        1
Cr      10.80000000       9.00000000       5.40000000      51.99610000      230        3
Fe      12.60000000       7.20000000       5.40000000      55.84500000      231        4
Co      12.60000000       9.00000000       3.60000000      58.93319400      232        1
Fe      10.80000000       7.20000000       7.20000000      55.84500000      233        4
Fe      10.80000000       9.00000000       9.00000000      55.84500000      234        4
Cr      12.60000000       7.20000000       9.00000000      51.99610000      235        3
Mn      12.60000000       9.00000000       7.20000000      54.93804400      236        5
Fe      10.80000000       7.20000000      10.80000000      55.84500000      237        4
Mn      10.80000000       9.00000000      12.60000000      54.93804400      238        5
Cr      12.60000000       7.20000000      12.60000000      51.99610000      239        3
Co      12.60000000       9.00000000      10.80000000      58.93319400      240        1
Co      10.80000000      10.80000000       0.00000000      58.93319400      241        1
Mn      10.80000000      12.60000000       1.80000000      54.93804400      242        5
Ni      12.60000000      10.80000000       1.80000000      58.69340000      243        2
Ni      12.60000000      12.60000000       0.00000000      58.69340000      244        2
Co      10.80000000      10.80000000       3.60000000      58.93319400      245        1
Ni      10.80000000      12.60000000       5.40000000      58.69340000      246        2
Mn      12.60000000      10.80000000       5.40000000      54.93804400      247        5
Ni      12.60000000      12.60000000       3.60000000      58.69340000      248        2
Co      10.80000000      10.80000000       7.20000000      58.93319400      249        1
Ni      10.80000000      12.60000000       9.00000000      58.69340000      250        2
Ni      12.60000000      10.80000000       9.00000000      58.69340000      251        2
Ni      12.60000000      12.60000000       7.20000000      58.69340000      252        2
Cr      10.80000000      10.80000000      10.80000000      51.99610000      253        3
Mn      10.80000000      12.60000000      12.60000000      54.93804400      254        5
Ni      12.60000000      10.80000000      12.60000000      58.69340000      255        2
Ni      12.60000000      12.60000000      10.80000000      58.69340000      256        2
