256
Lattice="14.4 0.0 0.0 0.0 14.4 0.0 0.0 0.0 14.4" Properties=species:S:1:pos:R:3:masses:R:1:id:I:1:type:I:1 comment="(written by ASE)" energy=-1019.1188924964 pbc="T T T"
Co       0.00000000       0.00000000       0.00000000      58.93319400        1        1
Cr       0.00000000       1.80000000       1.80000000      51.99610000        2        3
Fe       1.80000000       0.00000000       1.80000000      55.84500000        3        4
Fe       1.80000000       1.80000000       0.00000000      55.84500000        4        4
Ni       0.00000000       0.00000000       3.60000000      58.69340000        5        2
Ni       0.00000000       1.80000000       5.40000000      58.69340000        6        2
Co       1.80000000       0.00000000       5.40000000      58.93319400        7        1
Cr       1.80000000       1.80000000       3.60000000      51.99610000        8        3
Ni       0.00000000       0.00000000       7.20000000      58.69340000        9        2
Ni       0.00000000       1.80000000       9.00000000      58.69340000       10        2
Ni       1.80000000       0.00000000       9.00000000      58.69340000       11        2
Ni       1.80000000       1.80000000       7.20000000      58.69340000       12        2
Co       0.00000000       0.00000000      10.80000000      58.93319400       13        1
Mn       0.00000000       1.80000000      12.60000000      54.93804400       14        5
Mn       1.80000000       0.00000000      12.60000000      54.93804400       15        5
Ni       1.80000000       1.80000000      10.80000000      58.69340000       16        2
Cr       0.00000000       3.60000000       0.00000000      51.99610000       17        3
Cr       0.00000000       5.40000000       1.80000000      51.99610000       18        3
Cr       1.80000000       3.60000000       1.80000000      51.99610000       19        3
Ni       1.80000000       5.40000000       0.00000000      58.69340000       20        2
Cr       0.00000000       3.60000000       3.60000000      51.99610000       21        3
Cr       0.00000000       5.40000000       5.40000000      51.99610000       22        3
Ni       1.80000000       3.60000000       5.40000000      58.69340000       23        2
Cr       1.80000000       5.40000000       3.60000000      51.99610000       24        3
Co       0.00000000       3.60000000       7.20000000      58.93319400       25        1
Mn       0.00000000       5.40000000       9.00000000      54.93804400       26        5
Ni       1.80000000       3.60000000       9.00000000      58.69340000       27        2
Co       1.80000000       5.40000000       7.20000000      58.93319400       28        1
Co       0.00000000       3.60000000      10.80000000      58.93319400       29        1
Cr       0.00000000       5.40000000      12.60000000      51.99610000       30        3
Co       1.80000000       3.60000000      12.60000000      58.93319400       31        1
Ni       1.80000000       5.40000000      10.80000000      58.69340000       32        2
Ni       0.00000000       7.20000000       0.00000000      58.69340000       33        2
Cr       0.00000000       9.00000000       1.80000000      51.99610000       34        3
Cr       1.80000000       7.20000000       1.80000000      51.99610000       35        3
Cr       1.80000000       9.00000000       0.00000000      51.99610000       36        3
Cr       0.00000000       7.20000000       3.60000000      51.99610000       37        3
Ni       0.00000000       9.00000000       5.40000000      58.69340000       38        2
Cr       1.80000000       7.20000000       5.40000000      51.99610000       39        3
Cr       1.80000000       9.00000000       3.60000000      51.99610000       40        3
Ni       0.00000000       7.20000000       7.20000000      58.69340000       41        2
Co       0.00000000       9.00000000       9.00000000      58.93319400       42        1
Co       1.80000000       7.20000000       9.00000000      58.93319400       43        1
Ni       1.80000000       9.00000000       7.20000000      58.69340000       44        2
Co       0.00000000       7.20000000      10.80000000      58.93319400       45        1
Ni       0.00000000       9.00000000      12.60000000      58.69340000       46        2
Ni       1.80000000       7.20000000      12.60000000      58.69340000       47        2
Mn       1.80000000       9.00000000      10.80000000      54.93804400       48        5
Fe       0.00000000      10.80000000       0.00000000      55.84500000       49        4
Mn       0.00000000      12.60000000       1.80000000      54.93804400       50        5
Fe       1.80000000      10.80000000       1.80000000      55.84500000       51        4
Fe       1.80000000      12.60000000       0.00000000      55.84500000       52        4
Mn       0.00000000      10.80000000       3.60000000      54.93804400       53        5
Mn       0.00000000      12.60000000       5.40000000      54.93804400       54        5
Co       1.80000000      10.80000000       5.40000000      58.93319400       55        1
Fe       1.80000000      12.60000000       3.60000000      55.84500000       56        4
Ni       0.00000000      10.80000000       7.20000000      58.69340000       57        2
Ni       0.00000000      12.60000000       9.00000000      58.69340000       58        2
Ni       1.80000000      10.80000000       9.00000000      58.69340000       59        2
Co       1.80000000      12.60000000       7.20000000      58.93319400       60        1
Co       0.00000000      10.80000000      10.80000000      58.93319400       61        1
Mn       0.00000000      12.60000000      12.60000000      54.93804400       62        5
Cr       1.80000000      10.80000000      12.60000000      51.99610000       63        3
Ni       1.80000000      12.60000000      10.80000000      58.69340000       64        2
Fe       3.60000000       0.00000000       0.00000000      55.84500000       65        4
Fe       3.60000000       1.80000000       1.80000000      55.84500000       66        4
Fe       5.40000000       0.00000000       1.80000000      55.84500000       67        4
Fe       5.40000000       1.80000000       0.00000000      55.84500000       68        4
Fe       3.60000000       0.00000000       3.60000000      55.84500000       69        4
Co       3.60000000       1.80000000       5.40000000      58.93319400       70        1
Mn       5.40000000       0.00000000       5.40000000      54.93804400       71        5
Mn       5.40000000       1.80000000       3.60000000      54.93804400       72        5
Mn       3.60000000       0.00000000       7.20000000      54.93804400       73        5
Co       3.60000000       1.80000000       9.00000000      58.93319400       74        1
Mn       5.40000000       0.00000000       9.00000000      54.93804400       75        5
Mn       5.40000000       1.80000000       7.20000000      54.93804400       76        5
Co       3.60000000       0.00000000      10.80000000      58.93319400       77        1
Cr       3.60000000       1.80000000      12.60000000      51.99610000       78        3
Fe       5.40000000       0.00000000      12.60000000      55.84500000       79        4
Cr       5.40000000       1.80000000      10.80000000      51.99610000       80        3
Fe       3.60000000       3.60000000       0.00000000      55.84500000       81        4
Cr       3.60000000       5.40000000       1.80000000      51.99610000       82        3
Fe       5.40000000       3.60000000       1.80000000      55.84500000       83        4
Cr       5.40000000       5.40000000       0.00000000      51.99610000       84        3
Fe       3.60000000       3.60000000       3.60000000      55.84500000       85        4
Cr       3.60000000       5.40000000       5.40000000      51.99610000       86        3
Ni       5.40000000       3.60000000       5.40000000      58.69340000       87        2
Ni       5.40000000       5.40000000       3.60000000      58.69340000       88        2
Ni       3.60000000       3.60000000       7.20000000      58.69340000       89        2
Ni       3.60000000       5.40000000       9.00000000      58.69340000       90        2
Co       5.40000000       3.60000000       9.00000000      58.93319400       91        1
Ni       5.40000000       5.40000000       7.20000000      58.69340000       92        2
Ni       3.60000000       3.60000000      10.80000000      58.69340000       93        2
Ni       3.60000000       5.40000000      12.60000000      58.69340000       94        2
Cr       5.40000000       3.60000000      12.60000000      51.99610000       95        3
Ni       5.40000000       5.40000000      10.80000000      58.69340000       96        2
Cr       3.60000000       7.20000000       0.00000000      51.99610000       97        3
Cr       3.60000000       9.00000000       1.80000000      51.99610000       98        3
Cr       5.40000000       7.20000000       1.80000000      51.99610000       99        3
Cr       5.40000000       9.00000000       0.00000000      51.99610000      100        3
Cr       3.60000000       7.20000000       3.60000000      51.99610000      101        3
Cr       3.60000000       9.00000000       5.40000000      51.99610000      102        3
Fe       5.40000000       7.20000000       5.40000000      55.84500000      103        4
Cr       5.40000000       9.00000000       3.60000000      51.99610000      104        3
Ni       3.60000000       7.20000000       7.20000000      58.69340000      105        2
Co       3.60000000       9.00000000       9.00000000      58.93319400      106        1
Co       5.40000000       7.20000000       9.00000000      58.93319400      107        1
Fe       5.40000000       9.00000000       7.20000000      55.84500000      108        4
Co       3.60000000       7.20000000      10.80000000      58.93319400      109        1
Cr       3.60000000       9.00000000      12.60000000      51.99610000      110        3
Ni       5.40000000       7.20000000      12.60000000      58.69340000      111        2
Mn       5.40000000       9.00000000      10.80000000      54.93804400      112        5
Cr       3.60000000      10.80000000       0.00000000      51.99610000      113        3
Fe       3.60000000      12.60000000       1.80000000      55.84500000      114        4
Fe       5.40000000      10.80000000       1.80000000      55.84500000      115        4
Fe       5.40000000      12.60000000       0.00000000      55.84500000      116        4
Fe       3.60000000      10.80000000       3.60000000      55.84500000      117        4
Mn       3.60000000      12.60000000       5.40000000      54.93804400      118        5
Fe       5.40000000      10.80000000       5.40000000      55.84500000      119        4
Mn       5.40000000      12.60000000       3.60000000      54.93804400      120        5
Mn       3.60000000      10.80000000       7.20000000      54.93804400      121        5
Ni       3.60000000      12.60000000       9.00000000      58.69340000      122        2
Co       5.40000000      10.80000000       9.00000000      58.93319400      123        1
Co       5.40000000      12.60000000       7.20000000      58.93319400      124        1
Co       3.60000000      10.80000000      10.80000000      58.93319400      125        1
Mn       3.60000000      12.60000000      12.60000000      54.93804400      126        5
Mn       5.40000000      10.80000000      12.60000000      54.93804400      127        5
Ni       5.40000000      12.60000000      10.80000000      58.69340000      128        2
Mn       7.20000000       0.00000000       0.00000000      54.93804400      129        5
Fe       7.20000000       1.80000000       1.80000000      55.84500000      130        4
Mn       9.00000000       0.00000000       1.80000000      54.93804400      131        5
Fe       9.00000000       1.80000000       0.00000000      55.84500000      132        4
Co       7.20000000       0.00000000       3.60000000      58.93319400      133        1
Co       7.20000000       1.80000000       5.40000000      58.93319400      134        1
Mn       9.00000000       0.00000000       5.40000000      54.93804400      135        5
Mn       9.00000000       1.80000000       3.60000000      54.93804400      136        5
Mn       7.20000000       0.00000000       7.20000000      54.93804400      137        5
Mn       7.20000000       1.80000000       9.00000000      54.93804400      138        5
Co       9.00000000       0.00000000       9.00000000      58.93319400      139        1
Co       9.00000000       1.80000000       7.20000000      58.93319400      140        1
Fe       7.20000000       0.00000000      10.80000000      55.84500000      141        4
Fe       7.20000000       1.80000000      12.60000000      55.84500000      142        4
Fe       9.00000000       0.00000000      12.60000000      55.84500000      143        4
Mn       9.00000000       1.80000000      10.80000000      54.93804400      144        5
Cr       7.20000000       3.60000000       0.00000000      51.99610000      145        3
Cr       7.20000000       5.40000000       1.80000000      51.99610000      146        3
Cr       9.00000000       3.60000000       1.80000000      51.99610000      147        3
Fe       9.00000000       5.40000000       0.00000000      55.84500000      148        4
Fe       7.20000000       3.60000000       3.60000000      55.84500000      149        4
Co       7.20000000       5.40000000       5.40000000      58.93319400      150        1
Mn       9.00000000       3.60000000       5.40000000      54.93804400      151        5
Fe       9.00000000       5.40000000       3.60000000      55.84500000      152        4
Ni       7.20000000       3.60000000       7.20000000      58.69340000      153        2
Ni       7.20000000       5.40000000       9.00000000      58.69340000      154        2
Co       9.00000000       3.60000000       9.00000000      58.93319400      155        1
Mn       9.00000000       5.40000000       7.20000000      54.93804400      156        5
Co       7.20000000       3.60000000      10.80000000      58.93319400      157        1
Mn       7.20000000       5.40000000      12.60000000      54.93804400      158        5
Fe       9.00000000       3.60000000      12.60000000      55.84500000      159        4
Mn       9.00000000       5.40000000      10.80000000      54.93804400      160        5
Fe       7.20000000       7.20000000       0.00000000      55.84500000      161        4
Fe       7.20000000       9.00000000       1.80000000      55.84500000      162        4
Fe       9.00000000       7.20000000       1.80000000      55.84500000      163        4
Fe       9.00000000       9.00000000       0.00000000      55.84500000      164        4
Cr       7.20000000       7.20000000       3.60000000      51.99610000      165        3
Fe       7.20000000       9.00000000       5.40000000      55.84500000      166        4
Fe       9.00000000       7.20000000       5.40000000      55.84500000      167        4
Fe       9.00000000       9.00000000       3.60000000      55.84500000      168        4
Mn       7.20000000       7.20000000       7.20000000      54.93804400      169        5
Mn       7.20000000       9.00000000       9.00000000      54.93804400      170        5
Co       9.00000000       7.20000000       9.00000000      58.93319400      171        1
Mn       9.00000000       9.00000000       7.20000000      54.93804400      172        5
Co       7.20000000       7.20000000      10.80000000      58.93319400      173        1
Fe       7.20000000       9.00000000      12.60000000      55.84500000      174        4
Mn       9.00000000       7.20000000      12.60000000      54.93804400      175        5
Mn       9.00000000       9.00000000      10.80000000      54.93804400      176        5
Cr       7.20000000      10.80000000       0.00000000      51.99610000      177        3
Co       7.20000000      12.60000000       1.80000000      58.93319400      178        1
Fe       9.00000000      10.80000000       1.80000000      55.84500000      179        4
Mn       9.00000000      12.60000000       0.00000000      54.93804400      180        5
Mn       7.20000000      10.80000000       3.60000000      54.93804400      181        5
Co       7.20000000      12.60000000       5.40000000      58.93319400      182        1
Fe       9.00000000      10.80000000       5.40000000      55.84500000      183        4
Mn       9.00000000      12.60000000       3.60000000      54.93804400      184        5
Mn       7.20000000      10.80000000       7.20000000      54.93804400      185        5
Mn       7.20000000      12.60000000       9.00000000      54.93804400      186        5
Co       9.00000000      10.80000000       9.00000000      58.93319400      187        1
Co       9.00000000      12.60000000       7.20000000      58.93319400      188        1
Co       7.20000000      10.80000000      10.80000000      58.93319400      189        1
Fe       7.20000000      12.60000000      12.60000000      55.84500000      190        4
Mn       9.00000000      10.80000000      12.60000000      54.93804400      191        5
Mn       9.00000000      12.60000000      10.80000000      54.93804400      192        5
Fe      10.80000000       0.00000000       0.00000000      55.84500000      193        4
Cr      10.80000000       1.80000000       1.80000000      51.99610000      194        3
Fe      12.60000000       0.00000000       1.80000000      55.84500000      195        4
Cr      12.60000000       1.80000000       0.00000000      51.99610000      196        3
Co      10.80000000       0.00000000       3.60000000      58.93319400      197        1
Co      10.80000000       1.80000000       5.40000000      58.93319400      198        1
Ni      12.60000000       0.00000000       5.40000000      58.69340000      199        2
Ni      12.60000000       1.80000000       3.60000000      58.69340000      200        2
Ni      10.80000000       0.00000000       7.20000000      58.69340000      201        2
Mn      10.80000000       1.80000000       9.00000000      54.93804400      202        5
Ni      12.60000000       0.00000000       9.00000000      58.69340000      203        2
Co      12.60000000       1.80000000       7.20000000      58.93319400      204        1
Co      10.80000000       0.00000000      10.80000000      58.93319400      205        1
Fe      10.80000000       1.80000000      12.60000000      55.84500000      206        4
Mn      12.60000000       0.00000000      12.60000000      54.93804400      207        5
Mn      12.60000000       1.80000000      10.80000000      54.93804400      208        5
Fe      10.80000000       3.60000000       0.00000000      55.84500000      209        4
Cr      10.80000000       5.40000000       1.80000000      51.99610000      210        3
Cr      12.60000000       3.60000000       1.80000000      51.99610000      211        3
Cr      12.60000000       5.40000000       0.00000000      51.99610000      212        3
Cr      10.80000000       3.60000000       3.60000000      51.99610000      213        3
Fe      10.80000000       5.40000000       5.40000000      55.84500000      214        4
Mn      12.60000000       3.60000000       5.40000000      54.93804400      215        5
Cr      12.60000000       5.40000000       3.60000000      51.99610000      216        3
Mn      10.80000000       3.60000000       7.20000000      54.93804400      217        5
Co      10.80000000       5.40000000       9.00000000      58.93319400      218        1
Mn      12.60000000       3.60000000       9.00000000      54.93804400      219        5
Co      12.60000000       5.40000000       7.20000000      58.93319400      220        1
Mn      10.80000000       3.60000000      10.80000000      54.93804400      221        5
Fe      10.80000000       5.40000000      12.60000000      55.84500000      222        4
Fe      12.60000000       3.60000000      12.60000000      55.84500000      223        4
Mn      12.60000000       5.40000000      10.80000000      54.93804400      224        5
Fe      10.80000000       7.20000000       0.00000000      55.84500000      225        4
Mn      10.80000000       9.00000000       1.80000000      54.93804400      226        5
Cr      12.60000000       7.20000000       1.80000000      51.99610000      227        3
Ni      12.60000000       9.00000000       0.00000000      58.69340000      228        2
Fe      10.80000000       7.20000000       3.60000000      55.84500000      229        4
Fe      10.80000000       9.00000000       5.40000000      55.84500000      230        4
Cr      12.60000000       7.20000000       5.40000000      51.99610000      231        3
Cr      12.60000000       9.00000000       3.60000000      51.99610000      232        3
Cr      10.80000000       7.20000000       7.20000000      51.99610000      233        3
Co      10.80000000       9.00000000       9.00000000      58.93319400      234        1
Mn      12.60000000       7.20000000       9.00000000      54.93804400      235        5
Ni      12.60000000       9.00000000       7.20000000      58.69340000      236        2
Mn      10.80000000       7.20000000      10.80000000      54.93804400      237        5
Co      10.80000000       9.00000000      12.60000000      58.93319400      238        1
Fe      12.60000000       7.20000000      12.60000000      55.84500000      239        4
Mn      12.60000000       9.00000000      10.80000000      54.93804400      240        5
Mn      10.80000000      10.80000000       0.00000000      54.93804400      241        5
Mn      10.80000000      12.60000000       1.80000000      54.93804400      242        5
Co      12.60000000      10.80000000       1.80000000      58.93319400      243        1
Mn      12.60000000      12.60000000       0.00000000      54.93804400      244        5
Mn      10.80000000      10.80000000       3.60000000      54.93804400      245        5
Co      10.80000000      12.60000000       5.40000000      58.93319400      246        1
Co      12.60000000      10.80000000       5.40000000      58.93319400      247        1
Mn      12.60000000      12.60000000       3.60000000      54.93804400      248        5
Ni      10.80000000      10.80000000       7.20000000      58.69340000      249        2
Ni      10.80000000      12.60000000       9.00000000      58.69340000      250        2
Ni      12.60000000      10.80000000       9.00000000      58.69340000      251        2
Ni      12.60000000      12.60000000       7.20000000      58.69340000      252        2
Co      10.80000000      10.80000000      10.80000000      58.93319400      253        1
Mn      10.80000000      12.60000000      12.60000000      54.93804400      254        5
Mn      12.60000000      10.80000000      12.60000000      54.93804400      255        5
Ni      12.60000000      12.60000000      10.80000000      58.69340000      256        2
