256
Lattice="14.4 0.0 0.0 0.0 14.4 0.0 0.0 0.0 14.4" Properties=species:S:1:pos:R:3:masses:R:1:id:I:1:type:I:1 comment="(written by ASE)" energy=-1026.03290002032 pbc="T T T"
Mn       0.00000000       0.00000000       0.00000000      54.93804400        1        5
Co       0.00000000       1.80000000       1.80000000      58.93319400        2        1
Fe       1.80000000       0.00000000       1.80000000      55.84500000        3        4
Ni       1.80000000       1.80000000       0.00000000      58.69340000        4        2
Mn       0.00000000       0.00000000       3.60000000      54.93804400        5        5
Co       0.00000000       1.80000000       5.40000000      58.93319400        6        1
Mn       1.80000000       0.00000000       5.40000000      54.93804400        7        5
Ni       1.80000000       1.80000000       3.60000000      58.69340000        8        2
Mn       0.00000000       0.00000000       7.20000000      54.93804400        9        5
Mn       0.00000000       1.80000000       9.00000000      54.93804400       10        5
Co       1.80000000       0.00000000       9.00000000      58.93319400       11        1
Ni       1.80000000       1.80000000       7.20000000      58.69340000       12        2
Co       0.00000000       0.00000000      10.80000000      58.93319400       13        1
Mn       0.00000000       1.80000000      12.60000000      54.93804400       14        5
Mn       1.80000000       0.00000000      12.60000000      54.93804400       15        5
Co       1.80000000       1.80000000      10.80000000      58.93319400       16        1
Co       0.00000000       3.60000000       0.00000000      58.93319400       17        1
Ni       0.00000000       5.40000000       1.80000000      58.69340000       18        2
Cr       1.80000000       3.60000000       1.80000000      51.99610000       19        3
Mn       1.80000000       5.40000000       0.00000000      54.93804400       20        5
Cr       0.00000000       3.60000000       3.60000000      51.99610000       21        3
Cr       0.00000000       5.40000000       5.40000000      51.99610000       22        3
Cr       1.80000000       3.60000000       5.40000000      51.99610000       23        3
Cr       1.80000000       5.40000000       3.60000000      51.99610000       24        3
Mn       0.00000000       3.60000000       7.20000000      54.93804400       25        5
Co       0.00000000       5.40000000       9.00000000      58.93319400       26        1
Fe       1.80000000       3.60000000       9.00000000      55.84500000       27        4
Ni       1.80000000       5.40000000       7.20000000      58.69340000       28        2
Co       0.00000000       3.60000000      10.80000000      58.93319400       29        1
Mn       0.00000000       5.40000000      12.60000000      54.93804400       30        5
Mn       1.80000000       3.60000000      12.60000000      54.93804400       31        5
Ni       1.80000000       5.40000000      10.80000000      58.69340000       32        2
Mn       0.00000000       7.20000000       0.00000000      54.93804400       33        5
Cr       0.00000000       9.00000000       1.80000000      51.99610000       34        3
Cr       1.80000000       7.20000000       1.80000000      51.99610000       35        3
Ni       1.80000000       9.00000000       0.00000000      58.69340000       36        2
Cr       0.00000000       7.20000000       3.60000000      51.99610000       37        3
Cr       0.00000000       9.00000000       5.40000000      51.99610000       38        3
Cr       1.80000000       7.20000000       5.40000000      51.99610000       39        3
Cr       1.80000000       9.00000000       3.60000000      51.99610000       40        3
Cr       0.00000000       7.20000000       7.20000000      51.99610000       41        3
Cr       0.00000000       9.00000000       9.00000000      51.99610000       42        3
Mn       1.80000000       7.20000000       9.00000000      54.93804400       43        5
Cr       1.80000000       9.00000000       7.20000000      51.99610000       44        3
Cr       0.00000000       7.20000000      10.80000000      51.99610000       45        3
Cr       0.00000000       9.00000000      12.60000000      51.99610000       46        3
Mn       1.80000000       7.20000000      12.60000000      54.93804400       47        5
Ni       1.80000000       9.00000000      10.80000000      58.69340000       48        2
Ni       0.00000000      10.80000000       0.00000000      58.69340000       49        2
Ni       0.00000000      12.60000000       1.80000000      58.69340000       50        2
Fe       1.80000000      10.80000000       1.80000000      55.84500000       51        4
Fe       1.80000000      12.60000000       0.00000000      55.84500000       52        4
Cr       0.00000000      10.80000000       3.60000000      51.99610000       53        3
Ni       0.00000000      12.60000000       5.40000000      58.69340000       54        2
Cr       1.80000000      10.80000000       5.40000000      51.99610000       55        3
Fe       1.80000000      12.60000000       3.60000000      55.84500000       56        4
Cr       0.00000000      10.80000000       7.20000000      51.99610000       57        3
Cr       0.00000000      12.60000000       9.00000000      51.99610000       58        3
Cr       1.80000000      10.80000000       9.00000000      51.99610000       59        3
Co       1.80000000      12.60000000       7.20000000      58.93319400       60        1
Cr       0.00000000      10.80000000      10.80000000      51.99610000       61        3
Co       0.00000000      12.60000000      12.60000000      58.93319400       62        1
Cr       1.80000000      10.80000000      12.60000000      51.99610000       63        3
Cr       1.80000000      12.60000000      10.80000000      51.99610000       64        3
Co       3.60000000       0.00000000       0.00000000      58.93319400       65        1
Mn       3.60000000       1.80000000       1.80000000      54.93804400       66        5
Mn       5.40000000       0.00000000       1.80000000      54.93804400       67        5
Mn       5.40000000       1.80000000       0.00000000      54.93804400       68        5
Fe       3.60000000       0.00000000       3.60000000      55.84500000       69        4
Fe       3.60000000       1.80000000       5.40000000      55.84500000       70        4
Mn       5.40000000       0.00000000       5.40000000      54.93804400       71        5
Ni       5.40000000       1.80000000       3.60000000      58.69340000       72        2
Co       3.60000000       0.00000000       7.20000000      58.93319400       73        1
Mn       3.60000000       1.80000000       9.00000000      54.93804400       74        5
Mn       5.40000000       0.00000000       9.00000000      54.93804400       75        5
Co       5.40000000       1.80000000       7.20000000      58.93319400       76        1
Co       3.60000000       0.00000000      10.80000000      58.93319400       77        1
Mn       3.60000000       1.80000000      12.60000000      54.93804400       78        5
Co       5.40000000       0.00000000      12.60000000      58.93319400       79        1
Ni       5.40000000       1.80000000      10.80000000      58.69340000       80        2
Co       3.60000000       3.60000000       0.00000000      58.93319400       81        1
Ni       3.60000000       5.40000000       1.80000000      58.69340000       82        2
Ni       5.40000000       3.60000000       1.80000000      58.69340000       83        2
Fe       5.40000000       5.40000000       0.00000000      55.84500000       84        4
Cr       3.60000000       3.60000000       3.60000000      51.99610000       85        3
Fe       3.60000000       5.40000000       5.40000000      55.84500000       86        4
Ni       5.40000000       3.60000000       5.40000000      58.69340000       87        2
Cr       5.40000000       5.40000000       3.60000000      51.99610000       88        3
Mn       3.60000000       3.60000000       7.20000000      54.93804400       89        5
Fe       3.60000000       5.40000000       9.00000000      55.84500000       90        4
Mn       5.40000000       3.60000000       9.00000000      54.93804400       91        5
Fe       5.40000000       5.40000000       7.20000000      55.84500000       92        4
Fe       3.60000000       3.60000000      10.80000000      55.84500000       93        4
Fe       3.60000000       5.40000000      12.60000000      55.84500000       94        4
Fe       5.40000000       3.60000000      12.60000000      55.84500000       95        4
Fe       5.40000000       5.40000000      10.80000000      55.84500000       96        4
Fe       3.60000000       7.20000000       0.00000000      55.84500000       97        4
Ni       3.60000000       9.00000000       1.80000000      58.69340000       98        2
Mn       5.40000000       7.20000000       1.80000000      54.93804400       99        5
Fe       5.40000000       9.00000000       0.00000000      55.84500000      100        4
Ni       3.60000000       7.20000000       3.60000000      58.69340000      101        2
Ni       3.60000000       9.00000000       5.40000000      58.69340000      102        2
Fe       5.40000000       7.20000000       5.40000000      55.84500000      103        4
Fe       5.40000000       9.00000000       3.60000000      55.84500000      104        4
Fe       3.60000000       7.20000000       7.20000000      55.84500000      105        4
Ni       3.60000000       9.00000000       9.00000000      58.69340000      106        2
Fe       5.40000000       7.20000000       9.00000000      55.84500000      107        4
Fe       5.40000000       9.00000000       7.20000000      55.84500000      108        4
Fe       3.60000000       7.20000000      10.80000000      55.84500000      109        4
Fe       3.60000000       9.00000000      12.60000000      55.84500000      110        4
Fe       5.40000000       7.20000000      12.60000000      55.84500000      111        4
Fe       5.40000000       9.00000000      10.80000000      55.84500000      112        4
Fe       3.60000000      10.80000000       0.00000000      55.84500000      113        4
Fe       3.60000000      12.60000000       1.80000000      55.84500000      114        4
Fe       5.40000000      10.80000000       1.80000000      55.84500000      115        4
Ni       5.40000000      12.60000000       0.00000000      58.69340000      116        2
Fe       3.60000000      10.80000000       3.60000000      55.84500000      117        4
Ni       3.60000000      12.60000000       5.40000000      58.69340000      118        2
Fe       5.40000000      10.80000000       5.40000000      55.84500000      119        4
Ni       5.40000000      12.60000000       3.60000000      58.69340000      120        2
Mn       3.60000000      10.80000000       7.20000000      54.93804400      121        5
Mn       3.60000000      12.60000000       9.00000000      54.93804400      122        5
Mn       5.40000000      10.80000000       9.00000000      54.93804400      123        5
Co       5.40000000      12.60000000       7.20000000      58.93319400      124        1
Co       3.60000000      10.80000000      10.80000000      58.93319400      125        1
Mn       3.60000000      12.60000000      12.60000000      54.93804400      126        5
Co       5.40000000      10.80000000      12.60000000      58.93319400      127        1
Mn       5.40000000      12.60000000      10.80000000      54.93804400      128        5
Co       7.20000000       0.00000000       0.00000000      58.93319400      129        1
Co       7.20000000       1.80000000       1.80000000      58.93319400      130        1
Mn       9.00000000       0.00000000       1.80000000      54.93804400      131        5
Ni       9.00000000       1.80000000       0.00000000      58.69340000      132        2
Co       7.20000000       0.00000000       3.60000000      58.93319400      133        1
Mn       7.20000000       1.80000000       5.40000000      54.93804400      134        5
Mn       9.00000000       0.00000000       5.40000000      54.93804400      135        5
Co       9.00000000       1.80000000       3.60000000      58.93319400      136        1
Mn       7.20000000       0.00000000       7.20000000      54.93804400      137        5
Co       7.20000000       1.80000000       9.00000000      58.93319400      138        1
Mn       9.00000000       0.00000000       9.00000000      54.93804400      139        5
Co       9.00000000       1.80000000       7.20000000      58.93319400      140        1
Mn       7.20000000       0.00000000      10.80000000      54.93804400      141        5
Mn       7.20000000       1.80000000      12.60000000      54.93804400      142        5
Co       9.00000000       0.00000000      12.60000000      58.93319400      143        1
Co       9.00000000       1.80000000      10.80000000      58.93319400      144        1
Cr       7.20000000       3.60000000       0.00000000      51.99610000      145        3
Cr       7.20000000       5.40000000       1.80000000      51.99610000      146        3
Cr       9.00000000       3.60000000       1.80000000      51.99610000      147        3
Cr       9.00000000       5.40000000       0.00000000      51.99610000      148        3
Cr       7.20000000       3.60000000       3.60000000      51.99610000      149        3
Cr       7.20000000       5.40000000       5.40000000      51.99610000      150        3
Ni       9.00000000       3.60000000       5.40000000      58.69340000      151        2
Cr       9.00000000       5.40000000       3.60000000      51.99610000      152        3
Cr       7.20000000       3.60000000       7.20000000      51.99610000      153        3
Ni       7.20000000       5.40000000       9.00000000      58.69340000      154        2
Mn       9.00000000       3.60000000       9.00000000      54.93804400      155        5
Ni       9.00000000       5.40000000       7.20000000      58.69340000      156        2
Fe       7.20000000       3.60000000      10.80000000      55.84500000      157        4
Ni       7.20000000       5.40000000      12.60000000      58.69340000      158        2
Ni       9.00000000       3.60000000      12.60000000      58.69340000      159        2
Mn       9.00000000       5.40000000      10.80000000      54.93804400      160        5
Ni       7.20000000       7.20000000       0.00000000      58.69340000      161        2
Fe       7.20000000       9.00000000       1.80000000      55.84500000      162        4
Mn       9.00000000       7.20000000       1.80000000      54.93804400      163        5
Co       9.00000000       9.00000000       0.00000000      58.93319400      164        1
Ni       7.20000000       7.20000000       3.60000000      58.69340000      165        2
Fe       7.20000000       9.00000000       5.40000000      55.84500000      166        4
Ni       9.00000000       7.20000000       5.40000000      58.69340000      167        2
Fe       9.00000000       9.00000000       3.60000000      55.84500000      168        4
Fe       7.20000000       7.20000000       7.20000000      55.84500000      169        4
Fe       7.20000000       9.00000000       9.00000000      55.84500000      170        4
Fe       9.00000000       7.20000000       9.00000000      55.84500000      171        4
Fe       9.00000000       9.00000000       7.20000000      55.84500000      172        4
Fe       7.20000000       7.20000000      10.80000000      55.84500000      173        4
Fe       7.20000000       9.00000000      12.60000000      55.84500000      174        4
Co       9.00000000       7.20000000      12.60000000      58.93319400      175        1
Ni       9.00000000       9.00000000      10.80000000      58.69340000      176        2
Mn       7.20000000      10.80000000       0.00000000      54.93804400      177        5
Co       7.20000000      12.60000000       1.80000000      58.93319400      178        1
Fe       9.00000000      10.80000000       1.80000000      55.84500000      179        4
Mn       9.00000000      12.60000000       0.00000000      54.93804400      180        5
Fe       7.20000000      10.80000000       3.60000000      55.84500000      181        4
Fe       7.20000000      12.60000000       5.40000000      55.84500000      182        4
Fe       9.00000000      10.80000000       5.40000000      55.84500000      183        4
Fe       9.00000000      12.60000000       3.60000000      55.84500000      184        4
Fe       7.20000000      10.80000000       7.20000000      55.84500000      185        4
Ni       7.20000000      12.60000000       9.00000000      58.69340000      186        2
Fe       9.00000000      10.80000000       9.00000000      55.84500000      187        4
Ni       9.00000000      12.60000000       7.20000000      58.69340000      188        2
Mn       7.20000000      10.80000000      10.80000000      54.93804400      189        5
Co       7.20000000      12.60000000      12.60000000      58.93319400      190        1
Mn       9.00000000      10.80000000      12.60000000      54.93804400      191        5
Mn       9.00000000      12.60000000      10.80000000      54.93804400      192        5
Mn      10.80000000       0.00000000       0.00000000      54.93804400      193        5
Co      10.80000000       1.80000000       1.80000000      58.93319400      194        1
Co      12.60000000       0.00000000       1.80000000      58.93319400      195        1
Mn      12.60000000       1.80000000       0.00000000      54.93804400      196        5
Co      10.80000000       0.00000000       3.60000000      58.93319400      197        1
Mn      10.80000000       1.80000000       5.40000000      54.93804400      198        5
Co      12.60000000       0.00000000       5.40000000      58.93319400      199        1
Mn      12.60000000       1.80000000       3.60000000      54.93804400      200        5
Co      10.80000000       0.00000000       7.20000000      58.93319400      201        1
Co      10.80000000       1.80000000       9.00000000      58.93319400      202        1
Co      12.60000000       0.00000000       9.00000000      58.93319400      203        1
Mn      12.60000000       1.80000000       7.20000000      54.93804400      204        5
Co      10.80000000       0.00000000      10.80000000      58.93319400      205        1
Mn      10.80000000       1.80000000      12.60000000      54.93804400      206        5
Co      12.60000000       0.00000000      12.60000000      58.93319400      207        1
Mn      12.60000000       1.80000000      10.80000000      54.93804400      208        5
Cr      10.80000000       3.60000000       0.00000000      51.99610000      209        3
Ni      10.80000000       5.40000000       1.80000000      58.69340000      210        2
Cr      12.60000000       3.60000000       1.80000000      51.99610000      211        3
Mn      12.60000000       5.40000000       0.00000000      54.93804400      212        5
Cr      10.80000000       3.60000000       3.60000000      51.99610000      213        3
Cr      10.80000000       5.40000000       5.40000000      51.99610000      214        3
Ni      12.60000000       3.60000000       5.40000000      58.69340000      215        2
Cr      12.60000000       5.40000000       3.60000000      51.99610000      216        3
Cr      10.80000000       3.60000000       7.20000000      51.99610000      217        3
Ni      10.80000000       5.40000000       9.00000000      58.69340000      218        2
Co      12.60000000       3.60000000       9.00000000      58.93319400      219        1
Cr      12.60000000       5.40000000       7.20000000      51.99610000      220        3
Co      10.80000000       3.60000000      10.80000000      58.93319400      221        1
Co      10.80000000       5.40000000      12.60000000      58.93319400      222        1
Co      12.60000000       3.60000000      12.60000000      58.93319400      223        1
Mn      12.60000000       5.40000000      10.80000000      54.93804400      224        5
Mn      10.80000000       7.20000000       0.00000000      54.93804400      225        5
Ni      10.80000000       9.00000000       1.80000000      58.69340000      226        2
Cr      12.60000000       7.20000000       1.80000000      51.99610000      227        3
Co      12.60000000       9.00000000       0.00000000      58.93319400      228        1
Cr      10.80000000       7.20000000       3.60000000      51.99610000      229        3
Fe      10.80000000       9.00000000       5.40000000      55.84500000      230        4
Ni      12.60000000       7.20000000       5.40000000      58.69340000      231        2
Cr      12.60000000       9.00000000       3.60000000      51.99610000      232        3
Fe      10.80000000       7.20000000       7.20000000      55.84500000      233        4
Fe      10.80000000       9.00000000       9.00000000      55.84500000      234        4
Ni      12.60000000       7.20000000       9.00000000      58.69340000      235        2
Fe      12.60000000       9.00000000       7.20000000      55.84500000      236        4
Mn      10.80000000       7.20000000      10.80000000      54.93804400      237        5
Mn      10.80000000       9.00000000      12.60000000      54.93804400      238        5
Co      12.60000000       7.20000000      12.60000000      58.93319400      239        1
Co      12.60000000       9.00000000      10.80000000      58.93319400      240        1
Co      10.80000000      10.80000000       0.00000000      58.93319400      241        1
Ni      10.80000000      12.60000000       1.80000000      58.69340000      242        2
Cr      12.60000000      10.80000000       1.80000000      51.99610000      243        3
Mn      12.60000000      12.60000000       0.00000000      54.93804400      244        5
Ni      10.80000000      10.80000000       3.60000000      58.69340000      245        2
Mn      10.80000000      12.60000000       5.40000000      54.93804400      246        5
Ni      12.60000000      10.80000000       5.40000000      58.69340000      247        2
Cr      12.60000000      12.60000000       3.60000000      51.99610000      248        3
Fe      10.80000000      10.80000000       7.20000000      55.84500000      249        4
Mn      10.80000000      12.60000000       9.00000000      54.93804400      250        5
Ni      12.60000000      10.80000000       9.00000000      58.69340000      251        2
Cr      12.60000000      12.60000000       7.20000000      51.99610000      252        3
Co      10.80000000      10.80000000      10.80000000      58.93319400      253        1
Ni      10.80000000      12.60000000      12.60000000      58.69340000      254        2
Mn      12.60000000      10.80000000      12.60000000      54.93804400      255        5
Mn      12.60000000      12.60000000      10.80000000      54.93804400      256        5
