256
Lattice="14.4 0.0 0.0 0.0 14.4 0.0 0.0 0.0 14.4" Properties=species:S:1:pos:R:3:masses:R:1:id:I:1:type:I:1 comment="(written by ASE)" energy=-1019.82173841126 pbc="T T T"
Fe       0.00000000       0.00000000       0.00000000      55.84500000        1        4
Fe       0.00000000       1.80000000       1.80000000      55.84500000        2        4
Cr       1.80000000       0.00000000       1.80000000      51.99610000        3        3
Cr       1.80000000       1.80000000       0.00000000      51.99610000        4        3
Fe       0.00000000       0.00000000       3.60000000      55.84500000        5        4
Co       0.00000000       1.80000000       5.40000000      58.93319400        6        1
Fe       1.80000000       0.00000000       5.40000000      55.84500000        7        4
Mn       1.80000000       1.80000000       3.60000000      54.93804400        8        5
Co       0.00000000       0.00000000       7.20000000      58.93319400        9        1
Co       0.00000000       1.80000000       9.00000000      58.93319400       10        1
Ni       1.80000000       0.00000000       9.00000000      58.69340000       11        2
Ni       1.80000000       1.80000000       7.20000000      58.69340000       12        2
Mn       0.00000000       0.00000000      10.80000000      54.93804400       13        5
Mn       0.00000000       1.80000000      12.60000000      54.93804400       14        5
Fe       1.80000000       0.00000000      12.60000000      55.84500000       15        4
Ni       1.80000000       1.80000000      10.80000000      58.69340000       16        2
Fe       0.00000000       3.60000000       0.00000000      55.84500000       17        4
Mn       0.00000000       5.40000000       1.80000000      54.93804400       18        5
Mn       1.80000000       3.60000000       1.80000000      54.93804400       19        5
Cr       1.80000000       5.40000000       0.00000000      51.99610000       20        3
Ni       0.00000000       3.60000000       3.60000000      58.69340000       21        2
Co       0.00000000       5.40000000       5.40000000      58.93319400       22        1
Fe       1.80000000       3.60000000       5.40000000      55.84500000       23        4
Mn       1.80000000       5.40000000       3.60000000      54.93804400       24        5
Ni       0.00000000       3.60000000       7.20000000      58.69340000       25        2
Co       0.00000000       5.40000000       9.00000000      58.93319400       26        1
Co       1.80000000       3.60000000       9.00000000      58.93319400       27        1
Mn       1.80000000       5.40000000       7.20000000      54.93804400       28        5
Ni       0.00000000       3.60000000      10.80000000      58.69340000       29        2
Mn       0.00000000       5.40000000      12.60000000      54.93804400       30        5
Mn       1.80000000       3.60000000      12.60000000      54.93804400       31        5
Ni       1.80000000       5.40000000      10.80000000      58.69340000       32        2
Fe       0.00000000       7.20000000       0.00000000      55.84500000       33        4
Fe       0.00000000       9.00000000       1.80000000      55.84500000       34        4
Fe       1.80000000       7.20000000       1.80000000      55.84500000       35        4
Cr       1.80000000       9.00000000       0.00000000      51.99610000       36        3
Cr       0.00000000       7.20000000       3.60000000      51.99610000       37        3
Fe       0.00000000       9.00000000       5.40000000      55.84500000       38        4
Cr       1.80000000       7.20000000       5.40000000      51.99610000       39        3
Cr       1.80000000       9.00000000       3.60000000      51.99610000       40        3
Ni       0.00000000       7.20000000       7.20000000      58.69340000       41        2
Co       0.00000000       9.00000000       9.00000000      58.93319400       42        1
Co       1.80000000       7.20000000       9.00000000      58.93319400       43        1
Ni       1.80000000       9.00000000       7.20000000      58.69340000       44        2
Co       0.00000000       7.20000000      10.80000000      58.93319400       45        1
Ni       0.00000000       9.00000000      12.60000000      58.69340000       46        2
Co       1.80000000       7.20000000      12.60000000      58.93319400       47        1
Co       1.80000000       9.00000000      10.80000000      58.93319400       48        1
Fe       0.00000000      10.80000000       0.00000000      55.84500000       49        4
Fe       0.00000000      12.60000000       1.80000000      55.84500000       50        4
Mn       1.80000000      10.80000000       1.80000000      54.93804400       51        5
Cr       1.80000000      12.60000000       0.00000000      51.99610000       52        3
Mn       0.00000000      10.80000000       3.60000000      54.93804400       53        5
Mn       0.00000000      12.60000000       5.40000000      54.93804400       54        5
Mn       1.80000000      10.80000000       5.40000000      54.93804400       55        5
Cr       1.80000000      12.60000000       3.60000000      51.99610000       56        3
Fe       0.00000000      10.80000000       7.20000000      55.84500000       57        4
Fe       0.00000000      12.60000000       9.00000000      55.84500000       58        4
Ni       1.80000000      10.80000000       9.00000000      58.69340000       59        2
Ni       1.80000000      12.60000000       7.20000000      58.69340000       60        2
Ni       0.00000000      10.80000000      10.80000000      58.69340000       61        2
Cr       0.00000000      12.60000000      12.60000000      51.99610000       62        3
Mn       1.80000000      10.80000000      12.60000000      54.93804400       63        5
Mn       1.80000000      12.60000000      10.80000000      54.93804400       64        5
Fe       3.60000000       0.00000000       0.00000000      55.84500000       65        4
Cr       3.60000000       1.80000000       1.80000000      51.99610000       66        3
Cr       5.40000000       0.00000000       1.80000000      51.99610000       67        3
Mn       5.40000000       1.80000000       0.00000000      54.93804400       68        5
Fe       3.60000000       0.00000000       3.60000000      55.84500000       69        4
Cr       3.60000000       1.80000000       5.40000000      51.99610000       70        3
Co       5.40000000       0.00000000       5.40000000      58.93319400       71        1
Mn       5.40000000       1.80000000       3.60000000      54.93804400       72        5
Ni       3.60000000       0.00000000       7.20000000      58.69340000       73        2
Mn       3.60000000       1.80000000       9.00000000      54.93804400       74        5
Ni       5.40000000       0.00000000       9.00000000      58.69340000       75        2
Co       5.40000000       1.80000000       7.20000000      58.93319400       76        1
Fe       3.60000000       0.00000000      10.80000000      55.84500000       77        4
Ni       3.60000000       1.80000000      12.60000000      58.69340000       78        2
Fe       5.40000000       0.00000000      12.60000000      55.84500000       79        4
Ni       5.40000000       1.80000000      10.80000000      58.69340000       80        2
Fe       3.60000000       3.60000000       0.00000000      55.84500000       81        4
Cr       3.60000000       5.40000000       1.80000000      51.99610000       82        3
Mn       5.40000000       3.60000000       1.80000000      54.93804400       83        5
Mn       5.40000000       5.40000000       0.00000000      54.93804400       84        5
Fe       3.60000000       3.60000000       3.60000000      55.84500000       85        4
Cr       3.60000000       5.40000000       5.40000000      51.99610000       86        3
Fe       5.40000000       3.60000000       5.40000000      55.84500000       87        4
Mn       5.40000000       5.40000000       3.60000000      54.93804400       88        5
Cr       3.60000000       3.60000000       7.20000000      51.99610000       89        3
Ni       3.60000000       5.40000000       9.00000000      58.69340000       90        2
Mn       5.40000000       3.60000000       9.00000000      54.93804400       91        5
Fe       5.40000000       5.40000000       7.20000000      55.84500000       92        4
Co       3.60000000       3.60000000      10.80000000      58.93319400       93        1
Ni       3.60000000       5.40000000      12.60000000      58.69340000       94        2
Mn       5.40000000       3.60000000      12.60000000      54.93804400       95        5
Ni       5.40000000       5.40000000      10.80000000      58.69340000       96        2
Mn       3.60000000       7.20000000       0.00000000      54.93804400       97        5
Cr       3.60000000       9.00000000       1.80000000      51.99610000       98        3
Cr       5.40000000       7.20000000       1.80000000      51.99610000       99        3
Mn       5.40000000       9.00000000       0.00000000      54.93804400      100        5
Fe       3.60000000       7.20000000       3.60000000      55.84500000      101        4
Fe       3.60000000       9.00000000       5.40000000      55.84500000      102        4
Cr       5.40000000       7.20000000       5.40000000      51.99610000      103        3
Mn       5.40000000       9.00000000       3.60000000      54.93804400      104        5
Mn       3.60000000       7.20000000       7.20000000      54.93804400      105        5
Ni       3.60000000       9.00000000       9.00000000      58.69340000      106        2
Fe       5.40000000       7.20000000       9.00000000      55.84500000      107        4
Mn       5.40000000       9.00000000       7.20000000      54.93804400      108        5
Co       3.60000000       7.20000000      10.80000000      58.93319400      109        1
Ni       3.60000000       9.00000000      12.60000000      58.69340000      110        2
Fe       5.40000000       7.20000000      12.60000000      55.84500000      111        4
Ni       5.40000000       9.00000000      10.80000000      58.69340000      112        2
Cr       3.60000000      10.80000000       0.00000000      51.99610000      113        3
Mn       3.60000000      12.60000000       1.80000000      54.93804400      114        5
Cr       5.40000000      10.80000000       1.80000000      51.99610000      115        3
Mn       5.40000000      12.60000000       0.00000000      54.93804400      116        5
Fe       3.60000000      10.80000000       3.60000000      55.84500000      117        4
Ni       3.60000000      12.60000000       5.40000000      58.69340000      118        2
Ni       5.40000000      10.80000000       5.40000000      58.69340000      119        2
Mn       5.40000000      12.60000000       3.60000000      54.93804400      120        5
Co       3.60000000      10.80000000       7.20000000      58.93319400      121        1
Co       3.60000000      12.60000000       9.00000000      58.93319400      122        1
Co       5.40000000      10.80000000       9.00000000      58.93319400      123        1
Co       5.40000000      12.60000000       7.20000000      58.93319400      124        1
Co       3.60000000      10.80000000      10.80000000      58.93319400      125        1
Cr       3.60000000      12.60000000      12.60000000      51.99610000      126        3
Mn       5.40000000      10.80000000      12.60000000      54.93804400      127        5
Mn       5.40000000      12.60000000      10.80000000      54.93804400      128        5
Fe       7.20000000       0.00000000       0.00000000      55.84500000      129        4
Fe       7.20000000       1.80000000       1.80000000      55.84500000      130        4
Ni       9.00000000       0.00000000       1.80000000      58.69340000      131        2
Cr       9.00000000       1.80000000       0.00000000      51.99610000      132        3
Co       7.20000000       0.00000000       3.60000000      58.93319400      133        1
Co       7.20000000       1.80000000       5.40000000      58.93319400      134        1
Co       9.00000000       0.00000000       5.40000000      58.93319400      135        1
Co       9.00000000       1.80000000       3.60000000      58.93319400      136        1
Co       7.20000000       0.00000000       7.20000000      58.93319400      137        1
Co       7.20000000       1.80000000       9.00000000      58.93319400      138        1
Co       9.00000000       0.00000000       9.00000000      58.93319400      139        1
Ni       9.00000000       1.80000000       7.20000000      58.69340000      140        2
Fe       7.20000000       0.00000000      10.80000000      55.84500000      141        4
Mn       7.20000000       1.80000000      12.60000000      54.93804400      142        5
Fe       9.00000000       0.00000000      12.60000000      55.84500000      143        4
Cr       9.00000000       1.80000000      10.80000000      51.99610000      144        3
Cr       7.20000000       3.60000000       0.00000000      51.99610000      145        3
Fe       7.20000000       5.40000000       1.80000000      55.84500000      146        4
Cr       9.00000000       3.60000000       1.80000000      51.99610000      147        3
Fe       9.00000000       5.40000000       0.00000000      55.84500000      148        4
Cr       7.20000000       3.60000000       3.60000000      51.99610000      149        3
Cr       7.20000000       5.40000000       5.40000000      51.99610000      150        3
Mn       9.00000000       3.60000000       5.40000000      54.93804400      151        5
Mn       9.00000000       5.40000000       3.60000000      54.93804400      152        5
Mn       7.20000000       3.60000000       7.20000000      54.93804400      153        5
Ni       7.20000000       5.40000000       9.00000000      58.69340000      154        2
Fe       9.00000000       3.60000000       9.00000000      55.84500000      155        4
Mn       9.00000000       5.40000000       7.20000000      54.93804400      156        5
Fe       7.20000000       3.60000000      10.80000000      55.84500000      157        4
Cr       7.20000000       5.40000000      12.60000000      51.99610000      158        3
Mn       9.00000000       3.60000000      12.60000000      54.93804400      159        5
Mn       9.00000000       5.40000000      10.80000000      54.93804400      160        5
Cr       7.20000000       7.20000000       0.00000000      51.99610000      161        3
Fe       7.20000000       9.00000000       1.80000000      55.84500000      162        4
Cr       9.00000000       7.20000000       1.80000000      51.99610000      163        3
Cr       9.00000000       9.00000000       0.00000000      51.99610000      164        3
Fe       7.20000000       7.20000000       3.60000000      55.84500000      165        4
Cr       7.20000000       9.00000000       5.40000000      51.99610000      166        3
Mn       9.00000000       7.20000000       5.40000000      54.93804400      167        5
Cr       9.00000000       9.00000000       3.60000000      51.99610000      168        3
Mn       7.20000000       7.20000000       7.20000000      54.93804400      169        5
Ni       7.20000000       9.00000000       9.00000000      58.69340000      170        2
Ni       9.00000000       7.20000000       9.00000000      58.69340000      171        2
Co       9.00000000       9.00000000       7.20000000      58.93319400      172        1
Fe       7.20000000       7.20000000      10.80000000      55.84500000      173        4
Mn       7.20000000       9.00000000      12.60000000      54.93804400      174        5
Fe       9.00000000       7.20000000      12.60000000      55.84500000      175        4
Ni       9.00000000       9.00000000      10.80000000      58.69340000      176        2
Cr       7.20000000      10.80000000       0.00000000      51.99610000      177        3
Fe       7.20000000      12.60000000       1.80000000      55.84500000      178        4
Mn       9.00000000      10.80000000       1.80000000      54.93804400      179        5
Mn       9.00000000      12.60000000       0.00000000      54.93804400      180        5
Fe       7.20000000      10.80000000       3.60000000      55.84500000      181        4
Co       7.20000000      12.60000000       5.40000000      58.93319400      182        1
Mn       9.00000000      10.80000000       5.40000000      54.93804400      183        5
Ni       9.00000000      12.60000000       3.60000000      58.69340000      184        2
Co       7.20000000      10.80000000       7.20000000      58.93319400      185        1
Ni       7.20000000      12.60000000       9.00000000      58.69340000      186        2
Co       9.00000000      10.80000000       9.00000000      58.93319400      187        1
Co       9.00000000      12.60000000       7.20000000      58.93319400      188        1
Co       7.20000000      10.80000000      10.80000000      58.93319400      189        1
Cr       7.20000000      12.60000000      12.60000000      51.99610000      190        3
Fe       9.00000000      10.80000000      12.60000000      55.84500000      191        4
Mn       9.00000000      12.60000000      10.80000000      54.93804400      192        5
Mn      10.80000000       0.00000000       0.00000000      54.93804400      193        5
Fe      10.80000000       1.80000000       1.80000000      55.84500000      194        4
Cr      12.60000000       0.00000000       1.80000000      51.99610000      195        3
Cr      12.60000000       1.80000000       0.00000000      51.99610000      196        3
Co      10.80000000       0.00000000       3.60000000      58.93319400      197        1
Co      10.80000000       1.80000000       5.40000000      58.93319400      198        1
Co      12.60000000       0.00000000       5.40000000      58.93319400      199        1
Ni      12.60000000       1.80000000       3.60000000      58.69340000      200        2
Co      10.80000000       0.00000000       7.20000000      58.93319400      201        1
Mn      10.80000000       1.80000000       9.00000000      54.93804400      202        5
Ni      12.60000000       0.00000000       9.00000000      58.69340000      203        2
Ni      12.60000000       1.80000000       7.20000000      58.69340000      204        2
Ni      10.80000000       0.00000000      10.80000000      58.69340000      205        2
Fe      10.80000000       1.80000000      12.60000000      55.84500000      206        4
Cr      12.60000000       0.00000000      12.60000000      51.99610000      207        3
Co      12.60000000       1.80000000      10.80000000      58.93319400      208        1
Mn      10.80000000       3.60000000       0.00000000      54.93804400      209        5
Mn      10.80000000       5.40000000       1.80000000      54.93804400      210        5
Fe      12.60000000       3.60000000       1.80000000      55.84500000      211        4
Ni      12.60000000       5.40000000       0.00000000      58.69340000      212        2
Ni      10.80000000       3.60000000       3.60000000      58.69340000      213        2
Ni      10.80000000       5.40000000       5.40000000      58.69340000      214        2
Co      12.60000000       3.60000000       5.40000000      58.93319400      215        1
Mn      12.60000000       5.40000000       3.60000000      54.93804400      216        5
Mn      10.80000000       3.60000000       7.20000000      54.93804400      217        5
Mn      10.80000000       5.40000000       9.00000000      54.93804400      218        5
Co      12.60000000       3.60000000       9.00000000      58.93319400      219        1
Co      12.60000000       5.40000000       7.20000000      58.93319400      220        1
Cr      10.80000000       3.60000000      10.80000000      51.99610000      221        3
Cr      10.80000000       5.40000000      12.60000000      51.99610000      222        3
Mn      12.60000000       3.60000000      12.60000000      54.93804400      223        5
Co      12.60000000       5.40000000      10.80000000      58.93319400      224        1
Fe      10.80000000       7.20000000       0.00000000      55.84500000      225        4
Fe      10.80000000       9.00000000       1.80000000      55.84500000      226        4
Cr      12.60000000       7.20000000       1.80000000      51.99610000      227        3
Cr      12.60000000       9.00000000       0.00000000      51.99610000      228        3
Fe      10.80000000       7.20000000       3.60000000      55.84500000      229        4
Ni      10.80000000       9.00000000       5.40000000      58.69340000      230        2
Ni      12.60000000       7.20000000       5.40000000      58.69340000      231        2
Mn      12.60000000       9.00000000       3.60000000      54.93804400      232        5
Co      10.80000000       7.20000000       7.20000000      58.93319400      233        1
Co      10.80000000       9.00000000       9.00000000      58.93319400      234        1
Co      12.60000000       7.20000000       9.00000000      58.93319400      235        1
Ni      12.60000000       9.00000000       7.20000000      58.69340000      236        2
Co      10.80000000       7.20000000      10.80000000      58.93319400      237        1
Cr      10.80000000       9.00000000      12.60000000      51.99610000      238        3
Mn      12.60000000       7.20000000      12.60000000      54.93804400      239        5
Co      12.60000000       9.00000000      10.80000000      58.93319400      240        1
Fe      10.80000000      10.80000000       0.00000000      55.84500000      241        4
Fe      10.80000000      12.60000000       1.80000000      55.84500000      242        4
Cr      12.60000000      10.80000000       1.80000000      51.99610000      243        3
Mn      12.60000000      12.60000000       0.00000000      54.93804400      244        5
Fe      10.80000000      10.80000000       3.60000000      55.84500000      245        4
Co      10.80000000      12.60000000       5.40000000      58.93319400      246        1
Mn      12.60000000      10.80000000       5.40000000      54.93804400      247        5
Cr      12.60000000      12.60000000       3.60000000      51.99610000      248        3
Co      10.80000000      10.80000000       7.20000000      58.93319400      249        1
Ni      10.80000000      12.60000000       9.00000000      58.69340000      250        2
Ni      12.60000000      10.80000000       9.00000000      58.69340000      251        2
Ni      12.60000000      12.60000000       7.20000000      58.69340000      252        2
Mn      10.80000000      10.80000000      10.80000000      54.93804400      253        5
Cr      10.80000000      12.60000000      12.60000000      51.99610000      254        3
Mn      12.60000000      10.80000000      12.60000000      54.93804400      255        5
Fe      12.60000000      12.60000000      10.80000000      55.84500000      256        4
