256
Lattice="14.4 0.0 0.0 0.0 14.4 0.0 0.0 0.0 14.4" Properties=species:S:1:pos:R:3:masses:R:1:id:I:1:type:I:1 comment="(written by ASE)" energy=-1027.69910665575 pbc="T T T"
Co       0.00000000       0.00000000       0.00000000      58.93319400        1        1
Mn       0.00000000       1.80000000       1.80000000      54.93804400        2        5
Cr       1.80000000       0.00000000       1.80000000      51.99610000        3        3
Cr       1.80000000       1.80000000       0.00000000      51.99610000        4        3
Cr       0.00000000       0.00000000       3.60000000      51.99610000        5        3
Mn       0.00000000       1.80000000       5.40000000      54.93804400        6        5
Co       1.80000000       0.00000000       5.40000000      58.93319400        7        1
Cr       1.80000000       1.80000000       3.60000000      51.99610000        8        3
Ni       0.00000000       0.00000000       7.20000000      58.69340000        9        2
Co       0.00000000       1.80000000       9.00000000      58.93319400       10        1
Mn       1.80000000       0.00000000       9.00000000      54.93804400       11        5
Mn       1.80000000       1.80000000       7.20000000      54.93804400       12        5
Fe       0.00000000       0.00000000      10.80000000      55.84500000       13        4
Cr       0.00000000       1.80000000      12.60000000      51.99610000       14        3
Mn       1.80000000       0.00000000      12.60000000      54.93804400       15        5
Cr       1.80000000       1.80000000      10.80000000      51.99610000       16        3
Co       0.00000000       3.60000000       0.00000000      58.93319400       17        1
Fe       0.00000000       5.40000000       1.80000000      55.84500000       18        4
Ni       1.80000000       3.60000000       1.80000000      58.69340000       19        2
Co       1.80000000       5.40000000       0.00000000      58.93319400       20        1
Co       0.00000000       3.60000000       3.60000000      58.93319400       21        1
Mn       0.00000000       5.40000000       5.40000000      54.93804400       22        5
Cr       1.80000000       3.60000000       5.40000000      51.99610000       23        3
Mn       1.80000000       5.40000000       3.60000000      54.93804400       24        5
Co       0.00000000       3.60000000       7.20000000      58.93319400       25        1
Mn       0.00000000       5.40000000       9.00000000      54.93804400       26        5
Cr       1.80000000       3.60000000       9.00000000      51.99610000       27        3
Cr       1.80000000       5.40000000       7.20000000      51.99610000       28        3
Mn       0.00000000       3.60000000      10.80000000      54.93804400       29        5
Ni       0.00000000       5.40000000      12.60000000      58.69340000       30        2
Co       1.80000000       3.60000000      12.60000000      58.93319400       31        1
Co       1.80000000       5.40000000      10.80000000      58.93319400       32        1
Fe       0.00000000       7.20000000       0.00000000      55.84500000       33        4
Mn       0.00000000       9.00000000       1.80000000      54.93804400       34        5
Co       1.80000000       7.20000000       1.80000000      58.93319400       35        1
Ni       1.80000000       9.00000000       0.00000000      58.69340000       36        2
Cr       0.00000000       7.20000000       3.60000000      51.99610000       37        3
Mn       0.00000000       9.00000000       5.40000000      54.93804400       38        5
Cr       1.80000000       7.20000000       5.40000000      51.99610000       39        3
Mn       1.80000000       9.00000000       3.60000000      54.93804400       40        5
Cr       0.00000000       7.20000000       7.20000000      51.99610000       41        3
Mn       0.00000000       9.00000000       9.00000000      54.93804400       42        5
Cr       1.80000000       7.20000000       9.00000000      51.99610000       43        3
Cr       1.80000000       9.00000000       7.20000000      51.99610000       44        3
Cr       0.00000000       7.20000000      10.80000000      51.99610000       45        3
Fe       0.00000000       9.00000000      12.60000000      55.84500000       46        4
Fe       1.80000000       7.20000000      12.60000000      55.84500000       47        4
Fe       1.80000000       9.00000000      10.80000000      55.84500000       48        4
Mn       0.00000000      10.80000000       0.00000000      54.93804400       49        5
Mn       0.00000000      12.60000000       1.80000000      54.93804400       50        5
Cr       1.80000000      10.80000000       1.80000000      51.99610000       51        3
Cr       1.80000000      12.60000000       0.00000000      51.99610000       52        3
Cr       0.00000000      10.80000000       3.60000000      51.99610000       53        3
Mn       0.00000000      12.60000000       5.40000000      54.93804400       54        5
Co       1.80000000      10.80000000       5.40000000      58.93319400       55        1
Cr       1.80000000      12.60000000       3.60000000      51.99610000       56        3
Cr       0.00000000      10.80000000       7.20000000      51.99610000       57        3
Co       0.00000000      12.60000000       9.00000000      58.93319400       58        1
Mn       1.80000000      10.80000000       9.00000000      54.93804400       59        5
Co       1.80000000      12.60000000       7.20000000      58.93319400       60        1
Fe       0.00000000      10.80000000      10.80000000      55.84500000       61        4
Ni       0.00000000      12.60000000      12.60000000      58.69340000       62        2
Co       1.80000000      10.80000000      12.60000000      58.93319400       63        1
Ni       1.80000000      12.60000000      10.80000000      58.69340000       64        2
Co       3.60000000       0.00000000       0.00000000      58.93319400       65        1
Co       3.60000000       1.80000000       1.80000000      58.93319400       66        1
Mn       5.40000000       0.00000000       1.80000000      54.93804400       67        5
Ni       5.40000000       1.80000000       0.00000000      58.69340000       68        2
Mn       3.60000000       0.00000000       3.60000000      54.93804400       69        5
Cr       3.60000000       1.80000000       5.40000000      51.99610000       70        3
Co       5.40000000       0.00000000       5.40000000      58.93319400       71        1
Co       5.40000000       1.80000000       3.60000000      58.93319400       72        1
Cr       3.60000000       0.00000000       7.20000000      51.99610000       73        3
Ni       3.60000000       1.80000000       9.00000000      58.69340000       74        2
Co       5.40000000       0.00000000       9.00000000      58.93319400       75        1
Mn       5.40000000       1.80000000       7.20000000      54.93804400       76        5
Co       3.60000000       0.00000000      10.80000000      58.93319400       77        1
Ni       3.60000000       1.80000000      12.60000000      58.69340000       78        2
Mn       5.40000000       0.00000000      12.60000000      54.93804400       79        5
Fe       5.40000000       1.80000000      10.80000000      55.84500000       80        4
Mn       3.60000000       3.60000000       0.00000000      54.93804400       81        5
Cr       3.60000000       5.40000000       1.80000000      51.99610000       82        3
Cr       5.40000000       3.60000000       1.80000000      51.99610000       83        3
Cr       5.40000000       5.40000000       0.00000000      51.99610000       84        3
Mn       3.60000000       3.60000000       3.60000000      54.93804400       85        5
Cr       3.60000000       5.40000000       5.40000000      51.99610000       86        3
Cr       5.40000000       3.60000000       5.40000000      51.99610000       87        3
Mn       5.40000000       5.40000000       3.60000000      54.93804400       88        5
Co       3.60000000       3.60000000       7.20000000      58.93319400       89        1
Cr       3.60000000       5.40000000       9.00000000      51.99610000       90        3
Fe       5.40000000       3.60000000       9.00000000      55.84500000       91        4
Mn       5.40000000       5.40000000       7.20000000      54.93804400       92        5
Mn       3.60000000       3.60000000      10.80000000      54.93804400       93        5
Ni       3.60000000       5.40000000      12.60000000      58.69340000       94        2
Co       5.40000000       3.60000000      12.60000000      58.93319400       95        1
Fe       5.40000000       5.40000000      10.80000000      55.84500000       96        4
Mn       3.60000000       7.20000000       0.00000000      54.93804400       97        5
Cr       3.60000000       9.00000000       1.80000000      51.99610000       98        3
Co       5.40000000       7.20000000       1.80000000      58.93319400       99        1
Co       5.40000000       9.00000000       0.00000000      58.93319400      100        1
Cr       3.60000000       7.20000000       3.60000000      51.99610000      101        3
Cr       3.60000000       9.00000000       5.40000000      51.99610000      102        3
Cr       5.40000000       7.20000000       5.40000000      51.99610000      103        3
Co       5.40000000       9.00000000       3.60000000      58.93319400      104        1
Mn       3.60000000       7.20000000       7.20000000      54.93804400      105        5
Cr       3.60000000       9.00000000       9.00000000      51.99610000      106        3
Ni       5.40000000       7.20000000       9.00000000      58.69340000      107        2
Cr       5.40000000       9.00000000       7.20000000      51.99610000      108        3
Mn       3.60000000       7.20000000      10.80000000      54.93804400      109        5
Ni       3.60000000       9.00000000      12.60000000      58.69340000      110        2
Fe       5.40000000       7.20000000      12.60000000      55.84500000      111        4
Co       5.40000000       9.00000000      10.80000000      58.93319400      112        1
Mn       3.60000000      10.80000000       0.00000000      54.93804400      113        5
Co       3.60000000      12.60000000       1.80000000      58.93319400      114        1
Mn       5.40000000      10.80000000       1.80000000      54.93804400      115        5
Ni       5.40000000      12.60000000       0.00000000      58.69340000      116        2
Cr       3.60000000      10.80000000       3.60000000      51.99610000      117        3
Ni       3.60000000      12.60000000       5.40000000      58.69340000      118        2
Cr       5.40000000      10.80000000       5.40000000      51.99610000      119        3
Co       5.40000000      12.60000000       3.60000000      58.93319400      120        1
Co       3.60000000      10.80000000       7.20000000      58.93319400      121        1
Ni       3.60000000      12.60000000       9.00000000      58.69340000      122        2
Mn       5.40000000      10.80000000       9.00000000      54.93804400      123        5
Mn       5.40000000      12.60000000       7.20000000      54.93804400      124        5
Co       3.60000000      10.80000000      10.80000000      58.93319400      125        1
Cr       3.60000000      12.60000000      12.60000000      51.99610000      126        3
Mn       5.40000000      10.80000000      12.60000000      54.93804400      127        5
Ni       5.40000000      12.60000000      10.80000000      58.69340000      128        2
Fe       7.20000000       0.00000000       0.00000000      55.84500000      129        4
Ni       7.20000000       1.80000000       1.80000000      58.69340000      130        2
Mn       9.00000000       0.00000000       1.80000000      54.93804400      131        5
Co       9.00000000       1.80000000       0.00000000      58.93319400      132        1
Mn       7.20000000       0.00000000       3.60000000      54.93804400      133        5
Cr       7.20000000       1.80000000       5.40000000      51.99610000      134        3
Ni       9.00000000       0.00000000       5.40000000      58.69340000      135        2
Co       9.00000000       1.80000000       3.60000000      58.93319400      136        1
Co       7.20000000       0.00000000       7.20000000      58.93319400      137        1
Fe       7.20000000       1.80000000       9.00000000      55.84500000      138        4
Ni       9.00000000       0.00000000       9.00000000      58.69340000      139        2
Mn       9.00000000       1.80000000       7.20000000      54.93804400      140        5
Fe       7.20000000       0.00000000      10.80000000      55.84500000      141        4
Fe       7.20000000       1.80000000      12.60000000      55.84500000      142        4
Fe       9.00000000       0.00000000      12.60000000      55.84500000      143        4
Mn       9.00000000       1.80000000      10.80000000      54.93804400      144        5
Mn       7.20000000       3.60000000       0.00000000      54.93804400      145        5
Cr       7.20000000       5.40000000       1.80000000      51.99610000      146        3
Ni       9.00000000       3.60000000       1.80000000      58.69340000      147        2
Fe       9.00000000       5.40000000       0.00000000      55.84500000      148        4
Mn       7.20000000       3.60000000       3.60000000      54.93804400      149        5
Ni       7.20000000       5.40000000       5.40000000      58.69340000      150        2
Ni       9.00000000       3.60000000       5.40000000      58.69340000      151        2
Mn       9.00000000       5.40000000       3.60000000      54.93804400      152        5
Co       7.20000000       3.60000000       7.20000000      58.93319400      153        1
Fe       7.20000000       5.40000000       9.00000000      55.84500000      154        4
Ni       9.00000000       3.60000000       9.00000000      58.69340000      155        2
Mn       9.00000000       5.40000000       7.20000000      54.93804400      156        5
Fe       7.20000000       3.60000000      10.80000000      55.84500000      157        4
Fe       7.20000000       5.40000000      12.60000000      55.84500000      158        4
Ni       9.00000000       3.60000000      12.60000000      58.69340000      159        2
Mn       9.00000000       5.40000000      10.80000000      54.93804400      160        5
Mn       7.20000000       7.20000000       0.00000000      54.93804400      161        5
Ni       7.20000000       9.00000000       1.80000000      58.69340000      162        2
Fe       9.00000000       7.20000000       1.80000000      55.84500000      163        4
Fe       9.00000000       9.00000000       0.00000000      55.84500000      164        4
Cr       7.20000000       7.20000000       3.60000000      51.99610000      165        3
Mn       7.20000000       9.00000000       5.40000000      54.93804400      166        5
Ni       9.00000000       7.20000000       5.40000000      58.69340000      167        2
Fe       9.00000000       9.00000000       3.60000000      55.84500000      168        4
Co       7.20000000       7.20000000       7.20000000      58.93319400      169        1
Mn       7.20000000       9.00000000       9.00000000      54.93804400      170        5
Ni       9.00000000       7.20000000       9.00000000      58.69340000      171        2
Co       9.00000000       9.00000000       7.20000000      58.93319400      172        1
Fe       7.20000000       7.20000000      10.80000000      55.84500000      173        4
Ni       7.20000000       9.00000000      12.60000000      58.69340000      174        2
Fe       9.00000000       7.20000000      12.60000000      55.84500000      175        4
Fe       9.00000000       9.00000000      10.80000000      55.84500000      176        4
Fe       7.20000000      10.80000000       0.00000000      55.84500000      177        4
Ni       7.20000000      12.60000000       1.80000000      58.69340000      178        2
Fe       9.00000000      10.80000000       1.80000000      55.84500000      179        4
Fe       9.00000000      12.60000000       0.00000000      55.84500000      180        4
Mn       7.20000000      10.80000000       3.60000000      54.93804400      181        5
Cr       7.20000000      12.60000000       5.40000000      51.99610000      182        3
Ni       9.00000000      10.80000000       5.40000000      58.69340000      183        2
Co       9.00000000      12.60000000       3.60000000      58.93319400      184        1
Co       7.20000000      10.80000000       7.20000000      58.93319400      185        1
Fe       7.20000000      12.60000000       9.00000000      55.84500000      186        4
Ni       9.00000000      10.80000000       9.00000000      58.69340000      187        2
Mn       9.00000000      12.60000000       7.20000000      54.93804400      188        5
Mn       7.20000000      10.80000000      10.80000000      54.93804400      189        5
Fe       7.20000000      12.60000000      12.60000000      55.84500000      190        4
Fe       9.00000000      10.80000000      12.60000000      55.84500000      191        4
Fe       9.00000000      12.60000000      10.80000000      55.84500000      192        4
Co      10.80000000       0.00000000       0.00000000      58.93319400      193        1
Cr      10.80000000       1.80000000       1.80000000      51.99610000      194        3
Cr      12.60000000       0.00000000       1.80000000      51.99610000      195        3
Co      12.60000000       1.80000000       0.00000000      58.93319400      196        1
Mn      10.80000000       0.00000000       3.60000000      54.93804400      197        5
Mn      10.80000000       1.80000000       5.40000000      54.93804400      198        5
Cr      12.60000000       0.00000000       5.40000000      51.99610000      199        3
Cr      12.60000000       1.80000000       3.60000000      51.99610000      200        3
Ni      10.80000000       0.00000000       7.20000000      58.69340000      201        2
Co      10.80000000       1.80000000       9.00000000      58.93319400      202        1
Mn      12.60000000       0.00000000       9.00000000      54.93804400      203        5
Co      12.60000000       1.80000000       7.20000000      58.93319400      204        1
Fe      10.80000000       0.00000000      10.80000000      55.84500000      205        4
Ni      10.80000000       1.80000000      12.60000000      58.69340000      206        2
Mn      12.60000000       0.00000000      12.60000000      54.93804400      207        5
Ni      12.60000000       1.80000000      10.80000000      58.69340000      208        2
Mn      10.80000000       3.60000000       0.00000000      54.93804400      209        5
Fe      10.80000000       5.40000000       1.80000000      55.84500000      210        4
Ni      12.60000000       3.60000000       1.80000000      58.69340000      211        2
Fe      12.60000000       5.40000000       0.00000000      55.84500000      212        4
Mn      10.80000000       3.60000000       3.60000000      54.93804400      213        5
Fe      10.80000000       5.40000000       5.40000000      55.84500000      214        4
Co      12.60000000       3.60000000       5.40000000      58.93319400      215        1
Fe      12.60000000       5.40000000       3.60000000      55.84500000      216        4
Ni      10.80000000       3.60000000       7.20000000      58.69340000      217        2
Fe      10.80000000       5.40000000       9.00000000      55.84500000      218        4
Ni      12.60000000       3.60000000       9.00000000      58.69340000      219        2
Fe      12.60000000       5.40000000       7.20000000      55.84500000      220        4
Mn      10.80000000       3.60000000      10.80000000      54.93804400      221        5
Ni      10.80000000       5.40000000      12.60000000      58.69340000      222        2
Co      12.60000000       3.60000000      12.60000000      58.93319400      223        1
Co      12.60000000       5.40000000      10.80000000      58.93319400      224        1
Fe      10.80000000       7.20000000       0.00000000      55.84500000      225        4
Fe      10.80000000       9.00000000       1.80000000      55.84500000      226        4
Ni      12.60000000       7.20000000       1.80000000      58.69340000      227        2
Ni      12.60000000       9.00000000       0.00000000      58.69340000      228        2
Fe      10.80000000       7.20000000       3.60000000      55.84500000      229        4
Mn      10.80000000       9.00000000       5.40000000      54.93804400      230        5
Ni      12.60000000       7.20000000       5.40000000      58.69340000      231        2
Fe      12.60000000       9.00000000       3.60000000      55.84500000      232        4
Ni      10.80000000       7.20000000       7.20000000      58.69340000      233        2
Mn      10.80000000       9.00000000       9.00000000      54.93804400      234        5
Fe      12.60000000       7.20000000       9.00000000      55.84500000      235        4
Co      12.60000000       9.00000000       7.20000000      58.93319400      236        1
Fe      10.80000000       7.20000000      10.80000000      55.84500000      237        4
Ni      10.80000000       9.00000000      12.60000000      58.69340000      238        2
Mn      12.60000000       7.20000000      12.60000000      54.93804400      239        5
Fe      12.60000000       9.00000000      10.80000000      55.84500000      240        4
Mn      10.80000000      10.80000000       0.00000000      54.93804400      241        5
Ni      10.80000000      12.60000000       1.80000000      58.69340000      242        2
Ni      12.60000000      10.80000000       1.80000000      58.69340000      243        2
Co      12.60000000      12.60000000       0.00000000      58.93319400      244        1
Co      10.80000000      10.80000000       3.60000000      58.93319400      245        1
Mn      10.80000000      12.60000000       5.40000000      54.93804400      246        5
Cr      12.60000000      10.80000000       5.40000000      51.99610000      247        3
Cr      12.60000000      12.60000000       3.60000000      51.99610000      248        3
Ni      10.80000000      10.80000000       7.20000000      58.69340000      249        2
Fe      10.80000000      12.60000000       9.00000000      55.84500000      250        4
Fe      12.60000000      10.80000000       9.00000000      55.84500000      251        4
Co      12.60000000      12.60000000       7.20000000      58.93319400      252        1
Fe      10.80000000      10.80000000      10.80000000      55.84500000      253        4
Fe      10.80000000      12.60000000      12.60000000      55.84500000      254        4
Fe      12.60000000      10.80000000      12.60000000      55.84500000      255        4
Fe      12.60000000      12.60000000      10.80000000      55.84500000      256        4
