2
Lattice="10.863786 0.0 0.0 0.0 10.863786 0.0 0.0 0.0 7.242524" Properties=species:S:1:pos:R:3:forces:R:3 energy=-286.50486882 stress="-0.002598970560062866 -0.0009004822384060989 0.00015443080167127217 -0.0009004822384060989 -0.005992973973123529 0.0015299963548775313 0.00015443080167127217 0.0015299963548775313 -8.988228146165167e-05" pbc="T T T"
Cu      10.84368800       0.01696923       3.65871309      -0.61688780       0.27004654      -0.02483569
Cu      10.83387800       3.69713106       7.12674501      -0.54312980      -0.46143988       0.19868231