4
 energy: -5.206771940051 gnorm: 0.000501631688 xtb: 6.7.1 (d3f212b)
H            0.00000000000218       -0.00000000001009       -0.14656137670840
C           -0.00000000000656        0.00000000003029        0.90319231610888
C            0.00000000000656       -0.00000000003029        2.09680738883534
H           -0.00000000000218        0.00000000001009        3.14656167176419
